n -t * -s 0  -x 38.175780000000003 -y 14.7277 -Z 0 -z 1  -v circle -c black
n -t * -s 1  -x 86.878450000000001 -y 28.09206 -Z 0 -z 1  -v circle -c black
n -t * -s 2  -x 55.113930000000003 -y 75.205699999999993 -Z 0 -z 1  -v circle -c black
n -t * -s 3  -x 71.255409999999998 -y 49.367289999999997 -Z 0 -z 1  -v circle -c black
n -t * -s 4  -x 5.569896 -y 53.759129999999999 -Z 0 -z 1  -v circle -c black
n -t * -s 5  -x 31.944289999999999 -y 40.269919999999999 -Z 0 -z 1  -v circle -c black
n -t * -s 6  -x 2.0720269999999998 -y 25.87041 -Z 0 -z 1  -v circle -c black
n -t * -s 7  -x 24.444199999999999 -y 1.3154570000000001 -Z 0 -z 1  -v circle -c black
n -t * -s 8  -x 87.261380000000003 -y 50.767040000000001 -Z 0 -z 1  -v circle -c black
n -t * -s 9  -x 2.0122620000000002 -y 11.475820000000001 -Z 0 -z 1  -v circle -c black
n -t * -s 10  -x 69.249309999999994 -y 90.859309999999994 -Z 0 -z 1  -v circle -c black
n -t * -s 11  -x 9.4268129999999992 -y 31.436689999999999 -Z 0 -z 1  -v circle -c black
n -t * -s 12  -x 37.753 -y 88.361360000000005 -Z 0 -z 1  -v circle -c black
n -t * -s 13  -x 11.435140000000001 -y 54.611420000000003 -Z 0 -z 1  -v circle -c black
n -t * -s 14  -x 54.193249999999999 -y 95.460120000000003 -Z 0 -z 1  -v circle -c black
n -t * -s 15  -x 0.43066599999999999 -y 53.626269999999998 -Z 0 -z 1  -v circle -c black
n -t * -s 16  -x 83.44144 -y 99.784279999999995 -Z 0 -z 1  -v circle -c black
n -t * -s 17  -x 74.090860000000006 -y 63.535119999999999 -Z 0 -z 1  -v circle -c black
n -t * -s 18  -x 52.420070000000003 -y 8.2253270000000001 -Z 0 -z 1  -v circle -c black
n -t * -s 19  -x 28.609249999999999 -y 58.921169999999996 -Z 0 -z 1  -v circle -c black
n -t * -s 20  -x 45.153329999999997 -y 79.376099999999994 -Z 0 -z 2  -v circle -c black
V -t * -v 1.0a5 -a 0
W -t * -x 100 -y 100
A -t * -n 1 -p 0 -o 0x7fffffff -c 30 -a 1
A -t * -h 1 -m 1073741823 -s 0
n -t 0 -s 20 -S COLOR -c red -o black -i red -I black
n -t 0.000000 -s 20 -x 45.153330 -y 79.376100 -U 1.286085 -V -0.017473 -T 7.968748
n -t 0.000000 -s 2 -x 55.113930 -y 75.205700 -U -0.922413 -V 0.386205 -T 10.798416
n -t 0.000000 -s 10 -x 69.249310 -y 90.859310 -U -0.654996 -V -0.755633 -T 15.196813
n -t 0.000000 -s 14 -x 54.193250 -y 95.460120 -U 0.934598 -V -0.355705 -T 5.459260
n -t 0.000000 -s 17 -x 74.090860 -y 63.535120 -U -0.993472 -V 0.114073 -T 14.892608
n -t 0.000000 -s 12 -x 37.753000 -y 88.361360 -U 0.820447 -V 0.571723 -T 9.019881
n -t 0.000000 -s 19 -x 28.609250 -y 58.921170 -U 0.934294 -V 0.356503 -T 17.707568
n -t 0.000000 -s 13 -x 11.435140 -y 54.611420 -U 0.449465 -V 0.893298 -T 43.554130
n -t 0.000000 -s 5 -x 31.944290 -y 40.269920 -U -0.037351 -V 0.999302 -T 24.981477
n -t 0.000000 -s 3 -x 71.255410 -y 49.367290 -U -0.801664 -V 0.597775 -T 50.200852
n -t 1.000000 -s 2 -x 54.191517 -y 75.591905 -U 0.000000 -V 0.000000 -T 0.000000
n -t 1.000000 -s 10 -x 68.594314 -y 90.103677 -U 0.000000 -V 0.000000 -T 0.000000
n -t 1.000000 -s 14 -x 55.127848 -y 95.104415 -U 0.000000 -V 0.000000 -T 0.000000
n -t 1.000000 -s 17 -x 73.097388 -y 63.649193 -U 0.000000 -V 0.000000 -T 0.000000
n -t 1.000000 -s 12 -x 38.573447 -y 88.933083 -U 0.000000 -V 0.000000 -T 0.000000
n -t 1.000000 -s 19 -x 29.543544 -y 59.277673 -U 0.000000 -V 0.000000 -T 0.000000
n -t 1.000000 -s 13 -x 11.884605 -y 55.504718 -U 0.000000 -V 0.000000 -T 0.000000
n -t 1.000000 -s 5 -x 31.906939 -y 41.269222 -U 0.000000 -V 0.000000 -T 0.000000
n -t 1.000000 -s 3 -x 70.453746 -y 49.965065 -U 0.000000 -V 0.000000 -T 0.000000
n -t 1.000000 -s 2 -x 54.191517 -y 75.591905 -U -0.899444 -V 0.437037 -T 8.618775
n -t 1.000000 -s 10 -x 68.594314 -y 90.103677 -U -0.597800 -V -0.801645 -T 13.403749
n -t 1.000000 -s 14 -x 55.127848 -y 95.104415 -U 0.959383 -V -0.282105 -T 5.684591
n -t 1.000000 -s 17 -x 73.097388 -y 63.649193 -U -0.992250 -V 0.124255 -T 12.613588
n -t 1.000000 -s 12 -x 38.573447 -y 88.933083 -U 0.864773 -V 0.502164 -T 9.095997
n -t 1.000000 -s 19 -x 29.543544 -y 59.277673 -U 0.943418 -V 0.331607 -T 17.909216
n -t 1.000000 -s 13 -x 11.884605 -y 55.504718 -U 0.473260 -V 0.880923 -T 43.132084
n -t 1.000000 -s 5 -x 31.906939 -y 41.269222 -U 0.016298 -V 0.999867 -T 23.950450
n -t 1.000000 -s 3 -x 70.453746 -y 49.965065 -U -0.792198 -V 0.610264 -T 48.165313
n -t 1.000000 -s 10 -x 68.594314 -y 90.103677 -U 0.000000 -V 0.000000 -T 0.000000
n -t 1.000000 -s 14 -x 55.127848 -y 95.104415 -U 0.000000 -V 0.000000 -T 0.000000
n -t 1.000000 -s 17 -x 73.097388 -y 63.649193 -U 0.000000 -V 0.000000 -T 0.000000
n -t 1.000000 -s 12 -x 38.573447 -y 88.933083 -U 0.000000 -V 0.000000 -T 0.000000
n -t 1.000000 -s 19 -x 29.543544 -y 59.277673 -U 0.000000 -V 0.000000 -T 0.000000
n -t 1.000000 -s 13 -x 11.884605 -y 55.504718 -U 0.000000 -V 0.000000 -T 0.000000
n -t 1.000000 -s 5 -x 31.906939 -y 41.269222 -U 0.000000 -V 0.000000 -T 0.000000
n -t 1.000000 -s 3 -x 70.453746 -y 49.965065 -U 0.000000 -V 0.000000 -T 0.000000
n -t 2.000000 -s 10 -x 68.594314 -y 90.103677 -U 0.000000 -V 0.000000 -T 0.000000
n -t 2.000000 -s 14 -x 55.127848 -y 95.104415 -U 0.000000 -V 0.000000 -T 0.000000
n -t 2.000000 -s 17 -x 73.097388 -y 63.649193 -U 0.000000 -V 0.000000 -T 0.000000
n -t 2.000000 -s 12 -x 38.573447 -y 88.933083 -U 0.000000 -V 0.000000 -T 0.000000
n -t 2.000000 -s 19 -x 29.543544 -y 59.277673 -U 0.000000 -V 0.000000 -T 0.000000
n -t 2.000000 -s 13 -x 11.884605 -y 55.504718 -U 0.000000 -V 0.000000 -T 0.000000
n -t 2.000000 -s 5 -x 31.906939 -y 41.269222 -U 0.000000 -V 0.000000 -T 0.000000
n -t 2.000000 -s 3 -x 70.453746 -y 49.965065 -U 0.000000 -V 0.000000 -T 0.000000
n -t 3.000000 -s 10 -x 68.594314 -y 90.103677 -U 0.000000 -V 0.000000 -T 0.000000
n -t 3.000000 -s 14 -x 55.127848 -y 95.104415 -U 0.000000 -V 0.000000 -T 0.000000
n -t 3.000000 -s 17 -x 73.097388 -y 63.649193 -U 0.000000 -V 0.000000 -T 0.000000
n -t 3.000000 -s 12 -x 38.573447 -y 88.933083 -U 0.000000 -V 0.000000 -T 0.000000
n -t 3.000000 -s 19 -x 29.543544 -y 59.277673 -U 0.000000 -V 0.000000 -T 0.000000
n -t 3.000000 -s 13 -x 11.884605 -y 55.504718 -U 0.000000 -V 0.000000 -T 0.000000
n -t 3.000000 -s 5 -x 31.906939 -y 41.269222 -U 0.000000 -V 0.000000 -T 0.000000
n -t 3.000000 -s 3 -x 70.453746 -y 49.965065 -U 0.000000 -V 0.000000 -T 0.000000
n -t 4.000000 -s 10 -x 68.594314 -y 90.103677 -U 0.000000 -V 0.000000 -T 0.000000
n -t 4.000000 -s 14 -x 55.127848 -y 95.104415 -U 0.000000 -V 0.000000 -T 0.000000
n -t 4.000000 -s 17 -x 73.097388 -y 63.649193 -U 0.000000 -V 0.000000 -T 0.000000
n -t 4.000000 -s 12 -x 38.573447 -y 88.933083 -U 0.000000 -V 0.000000 -T 0.000000
n -t 4.000000 -s 19 -x 29.543544 -y 59.277673 -U 0.000000 -V 0.000000 -T 0.000000
n -t 4.000000 -s 13 -x 11.884605 -y 55.504718 -U 0.000000 -V 0.000000 -T 0.000000
n -t 4.000000 -s 5 -x 31.906939 -y 41.269222 -U 0.000000 -V 0.000000 -T 0.000000
n -t 4.000000 -s 3 -x 70.453746 -y 49.965065 -U 0.000000 -V 0.000000 -T 0.000000
n -t 5.000000 -s 10 -x 68.594314 -y 90.103677 -U 0.000000 -V 0.000000 -T 0.000000
n -t 5.000000 -s 14 -x 55.127848 -y 95.104415 -U 0.000000 -V 0.000000 -T 0.000000
n -t 5.000000 -s 17 -x 73.097388 -y 63.649193 -U 0.000000 -V 0.000000 -T 0.000000
n -t 5.000000 -s 12 -x 38.573447 -y 88.933083 -U 0.000000 -V 0.000000 -T 0.000000
n -t 5.000000 -s 19 -x 29.543544 -y 59.277673 -U 0.000000 -V 0.000000 -T 0.000000
n -t 5.000000 -s 13 -x 11.884605 -y 55.504718 -U 0.000000 -V 0.000000 -T 0.000000
n -t 5.000000 -s 5 -x 31.906939 -y 41.269222 -U 0.000000 -V 0.000000 -T 0.000000
n -t 5.000000 -s 3 -x 70.453746 -y 49.965065 -U 0.000000 -V 0.000000 -T 0.000000
n -t 6.000000 -s 10 -x 68.594314 -y 90.103677 -U 0.000000 -V 0.000000 -T 0.000000
n -t 6.000000 -s 14 -x 55.127848 -y 95.104415 -U 0.000000 -V 0.000000 -T 0.000000
n -t 6.000000 -s 17 -x 73.097388 -y 63.649193 -U 0.000000 -V 0.000000 -T 0.000000
n -t 6.000000 -s 12 -x 38.573447 -y 88.933083 -U 0.000000 -V 0.000000 -T 0.000000
n -t 6.000000 -s 19 -x 29.543544 -y 59.277673 -U 0.000000 -V 0.000000 -T 0.000000
n -t 6.000000 -s 13 -x 11.884605 -y 55.504718 -U 0.000000 -V 0.000000 -T 0.000000
n -t 6.000000 -s 5 -x 31.906939 -y 41.269222 -U 0.000000 -V 0.000000 -T 0.000000
n -t 6.000000 -s 3 -x 70.453746 -y 49.965065 -U 0.000000 -V 0.000000 -T 0.000000
n -t 7.000000 -s 2 -x 48.794855 -y 78.214126 -U 0.000000 -V 0.000000 -T 0.000000
n -t 7.000000 -s 10 -x 68.594314 -y 90.103677 -U 0.000000 -V 0.000000 -T 0.000000
n -t 7.000000 -s 14 -x 55.127848 -y 95.104415 -U 0.000000 -V 0.000000 -T 0.000000
n -t 7.000000 -s 17 -x 73.097388 -y 63.649193 -U 0.000000 -V 0.000000 -T 0.000000
n -t 7.000000 -s 12 -x 38.573447 -y 88.933083 -U 0.000000 -V 0.000000 -T 0.000000
n -t 7.000000 -s 19 -x 29.543544 -y 59.277673 -U 0.000000 -V 0.000000 -T 0.000000
n -t 7.000000 -s 13 -x 11.884605 -y 55.504718 -U 0.000000 -V 0.000000 -T 0.000000
n -t 7.000000 -s 5 -x 31.906939 -y 41.269222 -U 0.000000 -V 0.000000 -T 0.000000
n -t 7.000000 -s 3 -x 70.453746 -y 49.965065 -U 0.000000 -V 0.000000 -T 0.000000
n -t 7.000000 -s 2 -x 48.794855 -y 78.214126 -U 0.981710 -V 0.190381 -T 5.460951
n -t 7.000000 -s 10 -x 68.594314 -y 90.103677 -U -0.027294 -V -0.999627 -T 10.853934
n -t 7.000000 -s 14 -x 55.127848 -y 95.104415 -U 0.991691 -V -0.128646 -T 13.280568
n -t 7.000000 -s 17 -x 73.097388 -y 63.649193 -U -0.956574 -V 0.291489 -T 5.017201
n -t 7.000000 -s 12 -x 38.573447 -y 88.933083 -U 0.961349 -V 0.275332 -T 16.208968
n -t 7.000000 -s 3 -x 70.453746 -y 49.965065 -U -0.732504 -V 0.680762 -T 22.249449
n -t 7.000000 -s 19 -x 29.543544 -y 59.277673 -U 0.293377 -V 0.955997 -T 35.688669
n -t 7.000000 -s 16 -x 83.441440 -y 99.784280 -U -0.781478 -V -0.623932 -T 55.571142
n -t 7.000000 -s 10 -x 68.594314 -y 90.103677 -U 0.000000 -V 0.000000 -T 0.000000
n -t 7.000000 -s 14 -x 55.127848 -y 95.104415 -U 0.000000 -V 0.000000 -T 0.000000
n -t 7.000000 -s 17 -x 73.097388 -y 63.649193 -U 0.000000 -V 0.000000 -T 0.000000
n -t 7.000000 -s 12 -x 38.573447 -y 88.933083 -U 0.000000 -V 0.000000 -T 0.000000
n -t 7.000000 -s 3 -x 70.453746 -y 49.965065 -U 0.000000 -V 0.000000 -T 0.000000
n -t 7.000000 -s 19 -x 29.543544 -y 59.277673 -U 0.000000 -V 0.000000 -T 0.000000
n -t 7.000000 -s 16 -x 83.441440 -y 99.784280 -U 0.000000 -V 0.000000 -T 0.000000
n -t 8.000000 -s 10 -x 68.594314 -y 90.103677 -U 0.000000 -V 0.000000 -T 0.000000
n -t 8.000000 -s 14 -x 55.127848 -y 95.104415 -U 0.000000 -V 0.000000 -T 0.000000
n -t 8.000000 -s 17 -x 73.097388 -y 63.649193 -U 0.000000 -V 0.000000 -T 0.000000
n -t 8.000000 -s 12 -x 38.573447 -y 88.933083 -U 0.000000 -V 0.000000 -T 0.000000
n -t 8.000000 -s 3 -x 70.453746 -y 49.965065 -U 0.000000 -V 0.000000 -T 0.000000
n -t 8.000000 -s 19 -x 29.543544 -y 59.277673 -U 0.000000 -V 0.000000 -T 0.000000
n -t 8.000000 -s 16 -x 83.441440 -y 99.784280 -U 0.000000 -V 0.000000 -T 0.000000
n -t 9.000000 -s 10 -x 68.594314 -y 90.103677 -U 0.000000 -V 0.000000 -T 0.000000
n -t 9.000000 -s 14 -x 55.127848 -y 95.104415 -U 0.000000 -V 0.000000 -T 0.000000
n -t 9.000000 -s 17 -x 73.097388 -y 63.649193 -U 0.000000 -V 0.000000 -T 0.000000
n -t 9.000000 -s 12 -x 38.573447 -y 88.933083 -U 0.000000 -V 0.000000 -T 0.000000
n -t 9.000000 -s 3 -x 70.453746 -y 49.965065 -U 0.000000 -V 0.000000 -T 0.000000
n -t 9.000000 -s 19 -x 29.543544 -y 59.277673 -U 0.000000 -V 0.000000 -T 0.000000
n -t 9.000000 -s 16 -x 83.441440 -y 99.784280 -U 0.000000 -V 0.000000 -T 0.000000
n -t 10.000000 -s 20 -x 55.401820 -y 79.236860 -U -0.178800 -V -0.871473 -T 82.251595
n -t 10.000000 -s 10 -x 68.594314 -y 90.103677 -U 0.000000 -V 0.000000 -T 0.000000
n -t 10.000000 -s 14 -x 55.127848 -y 95.104415 -U 0.000000 -V 0.000000 -T 0.000000
n -t 10.000000 -s 17 -x 73.097388 -y 63.649193 -U 0.000000 -V 0.000000 -T 0.000000
n -t 10.000000 -s 12 -x 38.573447 -y 88.933083 -U 0.000000 -V 0.000000 -T 0.000000
n -t 10.000000 -s 3 -x 70.453746 -y 49.965065 -U 0.000000 -V 0.000000 -T 0.000000
n -t 10.000000 -s 19 -x 29.543544 -y 59.277673 -U 0.000000 -V 0.000000 -T 0.000000
n -t 10.000000 -s 16 -x 83.441440 -y 99.784280 -U 0.000000 -V 0.000000 -T 0.000000
n -t 11.000000 -s 10 -x 68.594314 -y 90.103677 -U 0.000000 -V 0.000000 -T 0.000000
n -t 11.000000 -s 14 -x 55.127848 -y 95.104415 -U 0.000000 -V 0.000000 -T 0.000000
n -t 11.000000 -s 17 -x 73.097388 -y 63.649193 -U 0.000000 -V 0.000000 -T 0.000000
n -t 11.000000 -s 12 -x 38.573447 -y 88.933083 -U 0.000000 -V 0.000000 -T 0.000000
n -t 11.000000 -s 3 -x 70.453746 -y 49.965065 -U 0.000000 -V 0.000000 -T 0.000000
n -t 11.000000 -s 19 -x 29.543544 -y 59.277673 -U 0.000000 -V 0.000000 -T 0.000000
n -t 11.000000 -s 16 -x 83.441440 -y 99.784280 -U 0.000000 -V 0.000000 -T 0.000000
n -t 12.000000 -s 10 -x 68.594314 -y 90.103677 -U 0.000000 -V 0.000000 -T 0.000000
n -t 12.000000 -s 14 -x 55.127848 -y 95.104415 -U 0.000000 -V 0.000000 -T 0.000000
n -t 12.000000 -s 17 -x 73.097388 -y 63.649193 -U 0.000000 -V 0.000000 -T 0.000000
n -t 12.000000 -s 12 -x 38.573447 -y 88.933083 -U 0.000000 -V 0.000000 -T 0.000000
n -t 12.000000 -s 3 -x 70.453746 -y 49.965065 -U 0.000000 -V 0.000000 -T 0.000000
n -t 12.000000 -s 19 -x 29.543544 -y 59.277673 -U 0.000000 -V 0.000000 -T 0.000000
n -t 12.000000 -s 16 -x 83.441440 -y 99.784280 -U 0.000000 -V 0.000000 -T 0.000000
n -t 13.000000 -s 10 -x 68.594314 -y 90.103677 -U 0.000000 -V 0.000000 -T 0.000000
n -t 13.000000 -s 14 -x 55.127848 -y 95.104415 -U 0.000000 -V 0.000000 -T 0.000000
n -t 13.000000 -s 17 -x 73.097388 -y 63.649193 -U 0.000000 -V 0.000000 -T 0.000000
n -t 13.000000 -s 12 -x 38.573447 -y 88.933083 -U 0.000000 -V 0.000000 -T 0.000000
n -t 13.000000 -s 3 -x 70.453746 -y 49.965065 -U 0.000000 -V 0.000000 -T 0.000000
n -t 13.000000 -s 19 -x 29.543544 -y 59.277673 -U 0.000000 -V 0.000000 -T 0.000000
n -t 13.000000 -s 16 -x 83.441440 -y 99.784280 -U 0.000000 -V 0.000000 -T 0.000000
n -t 14.000000 -s 10 -x 68.594314 -y 90.103677 -U 0.000000 -V 0.000000 -T 0.000000
n -t 14.000000 -s 14 -x 55.127848 -y 95.104415 -U 0.000000 -V 0.000000 -T 0.000000
n -t 14.000000 -s 17 -x 73.097388 -y 63.649193 -U 0.000000 -V 0.000000 -T 0.000000
n -t 14.000000 -s 12 -x 38.573447 -y 88.933083 -U 0.000000 -V 0.000000 -T 0.000000
n -t 14.000000 -s 3 -x 70.453746 -y 49.965065 -U 0.000000 -V 0.000000 -T 0.000000
n -t 14.000000 -s 19 -x 29.543544 -y 59.277673 -U 0.000000 -V 0.000000 -T 0.000000
n -t 14.000000 -s 16 -x 83.441440 -y 99.784280 -U 0.000000 -V 0.000000 -T 0.000000
n -t 15.000000 -s 10 -x 68.594314 -y 90.103677 -U 0.000000 -V 0.000000 -T 0.000000
n -t 15.000000 -s 14 -x 55.127848 -y 95.104415 -U 0.000000 -V 0.000000 -T 0.000000
n -t 15.000000 -s 17 -x 73.097388 -y 63.649193 -U 0.000000 -V 0.000000 -T 0.000000
n -t 15.000000 -s 12 -x 38.573447 -y 88.933083 -U 0.000000 -V 0.000000 -T 0.000000
n -t 15.000000 -s 3 -x 70.453746 -y 49.965065 -U 0.000000 -V 0.000000 -T 0.000000
n -t 15.000000 -s 19 -x 29.543544 -y 59.277673 -U 0.000000 -V 0.000000 -T 0.000000
n -t 15.000000 -s 16 -x 83.441440 -y 99.784280 -U 0.000000 -V 0.000000 -T 0.000000
n -t 16.000000 -s 10 -x 68.594314 -y 90.103677 -U 0.000000 -V 0.000000 -T 0.000000
n -t 16.000000 -s 14 -x 55.127848 -y 95.104415 -U 0.000000 -V 0.000000 -T 0.000000
n -t 16.000000 -s 17 -x 73.097388 -y 63.649193 -U 0.000000 -V 0.000000 -T 0.000000
n -t 16.000000 -s 12 -x 38.573447 -y 88.933083 -U 0.000000 -V 0.000000 -T 0.000000
n -t 16.000000 -s 3 -x 70.453746 -y 49.965065 -U 0.000000 -V 0.000000 -T 0.000000
n -t 16.000000 -s 19 -x 29.543544 -y 59.277673 -U 0.000000 -V 0.000000 -T 0.000000
n -t 16.000000 -s 16 -x 83.441440 -y 99.784280 -U 0.000000 -V 0.000000 -T 0.000000
n -t 17.000000 -s 10 -x 68.594314 -y 90.103677 -U 0.000000 -V 0.000000 -T 0.000000
n -t 17.000000 -s 14 -x 55.127848 -y 95.104415 -U 0.000000 -V 0.000000 -T 0.000000
n -t 17.000000 -s 17 -x 73.097388 -y 63.649193 -U 0.000000 -V 0.000000 -T 0.000000
n -t 17.000000 -s 12 -x 38.573447 -y 88.933083 -U 0.000000 -V 0.000000 -T 0.000000
n -t 17.000000 -s 3 -x 70.453746 -y 49.965065 -U 0.000000 -V 0.000000 -T 0.000000
n -t 17.000000 -s 19 -x 29.543544 -y 59.277673 -U 0.000000 -V 0.000000 -T 0.000000
n -t 17.000000 -s 16 -x 83.441440 -y 99.784280 -U 0.000000 -V 0.000000 -T 0.000000
n -t 18.000000 -s 10 -x 68.594314 -y 90.103677 -U 0.000000 -V 0.000000 -T 0.000000
n -t 18.000000 -s 14 -x 55.127848 -y 95.104415 -U 0.000000 -V 0.000000 -T 0.000000
n -t 18.000000 -s 17 -x 73.097388 -y 63.649193 -U 0.000000 -V 0.000000 -T 0.000000
n -t 18.000000 -s 12 -x 38.573447 -y 88.933083 -U 0.000000 -V 0.000000 -T 0.000000
n -t 18.000000 -s 3 -x 70.453746 -y 49.965065 -U 0.000000 -V 0.000000 -T 0.000000
n -t 18.000000 -s 19 -x 29.543544 -y 59.277673 -U 0.000000 -V 0.000000 -T 0.000000
n -t 18.000000 -s 16 -x 83.441440 -y 99.784280 -U 0.000000 -V 0.000000 -T 0.000000
n -t 19.000000 -s 2 -x 54.155927 -y 79.253787 -U 0.000000 -V 0.000000 -T 0.000000
n -t 19.000000 -s 10 -x 68.594314 -y 90.103677 -U 0.000000 -V 0.000000 -T 0.000000
n -t 19.000000 -s 14 -x 55.127848 -y 95.104415 -U 0.000000 -V 0.000000 -T 0.000000
n -t 19.000000 -s 17 -x 73.097388 -y 63.649193 -U 0.000000 -V 0.000000 -T 0.000000
n -t 19.000000 -s 12 -x 38.573447 -y 88.933083 -U 0.000000 -V 0.000000 -T 0.000000
n -t 19.000000 -s 3 -x 70.453746 -y 49.965065 -U 0.000000 -V 0.000000 -T 0.000000
n -t 19.000000 -s 19 -x 29.543544 -y 59.277673 -U 0.000000 -V 0.000000 -T 0.000000
n -t 19.000000 -s 16 -x 83.441440 -y 99.784280 -U 0.000000 -V 0.000000 -T 0.000000
n -t 19.000000 -s 2 -x 54.155927 -y 79.253787 -U -0.046171 -V -0.998934 -T 7.868578
n -t 19.000000 -s 3 -x 70.453746 -y 49.965065 -U -0.916215 -V 0.400688 -T 18.184736
n -t 19.000000 -s 17 -x 73.097388 -y 63.649193 -U -0.627986 -V -0.778225 -T 8.220928
n -t 19.000000 -s 19 -x 29.543544 -y 59.277673 -U 0.980491 -V -0.196566 -T 10.308047
n -t 19.000000 -s 10 -x 68.594314 -y 90.103677 -U -0.035229 -V -0.999379 -T 18.721698
n -t 19.000000 -s 12 -x 38.573447 -y 88.933083 -U 0.061291 -V -0.998120 -T 17.572520
n -t 19.000000 -s 14 -x 55.127848 -y 95.104415 -U 0.801095 -V -0.598538 -T 15.986763
n -t 19.000000 -s 5 -x 31.906939 -y 41.269222 -U 0.172314 -V 0.985042 -T 44.938701
n -t 19.000000 -s 16 -x 83.441440 -y 99.784280 -U -0.901320 -V -0.433154 -T 32.894883
n -t 19.000000 -s 3 -x 70.453746 -y 49.965065 -U 0.000000 -V 0.000000 -T 0.000000
n -t 19.000000 -s 17 -x 73.097388 -y 63.649193 -U 0.000000 -V 0.000000 -T 0.000000
n -t 19.000000 -s 19 -x 29.543544 -y 59.277673 -U 0.000000 -V 0.000000 -T 0.000000
n -t 19.000000 -s 10 -x 68.594314 -y 90.103677 -U 0.000000 -V 0.000000 -T 0.000000
n -t 19.000000 -s 12 -x 38.573447 -y 88.933083 -U 0.000000 -V 0.000000 -T 0.000000
n -t 19.000000 -s 14 -x 55.127848 -y 95.104415 -U 0.000000 -V 0.000000 -T 0.000000
n -t 19.000000 -s 5 -x 31.906939 -y 41.269222 -U 0.000000 -V 0.000000 -T 0.000000
n -t 19.000000 -s 16 -x 83.441440 -y 99.784280 -U 0.000000 -V 0.000000 -T 0.000000
n -t 20.000000 -s 3 -x 70.453746 -y 49.965065 -U 0.000000 -V 0.000000 -T 0.000000
n -t 20.000000 -s 17 -x 73.097388 -y 63.649193 -U 0.000000 -V 0.000000 -T 0.000000
n -t 20.000000 -s 19 -x 29.543544 -y 59.277673 -U 0.000000 -V 0.000000 -T 0.000000
n -t 20.000000 -s 10 -x 68.594314 -y 90.103677 -U 0.000000 -V 0.000000 -T 0.000000
n -t 20.000000 -s 12 -x 38.573447 -y 88.933083 -U 0.000000 -V 0.000000 -T 0.000000
n -t 20.000000 -s 14 -x 55.127848 -y 95.104415 -U 0.000000 -V 0.000000 -T 0.000000
n -t 20.000000 -s 5 -x 31.906939 -y 41.269222 -U 0.000000 -V 0.000000 -T 0.000000
n -t 20.000000 -s 16 -x 83.441440 -y 99.784280 -U 0.000000 -V 0.000000 -T 0.000000
n -t 21.000000 -s 3 -x 70.453746 -y 49.965065 -U 0.000000 -V 0.000000 -T 0.000000
n -t 21.000000 -s 17 -x 73.097388 -y 63.649193 -U 0.000000 -V 0.000000 -T 0.000000
n -t 21.000000 -s 19 -x 29.543544 -y 59.277673 -U 0.000000 -V 0.000000 -T 0.000000
n -t 21.000000 -s 10 -x 68.594314 -y 90.103677 -U 0.000000 -V 0.000000 -T 0.000000
n -t 21.000000 -s 12 -x 38.573447 -y 88.933083 -U 0.000000 -V 0.000000 -T 0.000000
n -t 21.000000 -s 14 -x 55.127848 -y 95.104415 -U 0.000000 -V 0.000000 -T 0.000000
n -t 21.000000 -s 5 -x 31.906939 -y 41.269222 -U 0.000000 -V 0.000000 -T 0.000000
n -t 21.000000 -s 16 -x 83.441440 -y 99.784280 -U 0.000000 -V 0.000000 -T 0.000000
n -t 22.000000 -s 3 -x 70.453746 -y 49.965065 -U 0.000000 -V 0.000000 -T 0.000000
n -t 22.000000 -s 17 -x 73.097388 -y 63.649193 -U 0.000000 -V 0.000000 -T 0.000000
n -t 22.000000 -s 19 -x 29.543544 -y 59.277673 -U 0.000000 -V 0.000000 -T 0.000000
n -t 22.000000 -s 10 -x 68.594314 -y 90.103677 -U 0.000000 -V 0.000000 -T 0.000000
n -t 22.000000 -s 12 -x 38.573447 -y 88.933083 -U 0.000000 -V 0.000000 -T 0.000000
n -t 22.000000 -s 14 -x 55.127848 -y 95.104415 -U 0.000000 -V 0.000000 -T 0.000000
n -t 22.000000 -s 5 -x 31.906939 -y 41.269222 -U 0.000000 -V 0.000000 -T 0.000000
n -t 22.000000 -s 16 -x 83.441440 -y 99.784280 -U 0.000000 -V 0.000000 -T 0.000000
n -t 23.000000 -s 3 -x 70.453746 -y 49.965065 -U 0.000000 -V 0.000000 -T 0.000000
n -t 23.000000 -s 17 -x 73.097388 -y 63.649193 -U 0.000000 -V 0.000000 -T 0.000000
n -t 23.000000 -s 19 -x 29.543544 -y 59.277673 -U 0.000000 -V 0.000000 -T 0.000000
n -t 23.000000 -s 10 -x 68.594314 -y 90.103677 -U 0.000000 -V 0.000000 -T 0.000000
n -t 23.000000 -s 12 -x 38.573447 -y 88.933083 -U 0.000000 -V 0.000000 -T 0.000000
n -t 23.000000 -s 14 -x 55.127848 -y 95.104415 -U 0.000000 -V 0.000000 -T 0.000000
n -t 23.000000 -s 5 -x 31.906939 -y 41.269222 -U 0.000000 -V 0.000000 -T 0.000000
n -t 23.000000 -s 16 -x 83.441440 -y 99.784280 -U 0.000000 -V 0.000000 -T 0.000000
n -t 24.000000 -s 3 -x 70.453746 -y 49.965065 -U 0.000000 -V 0.000000 -T 0.000000
n -t 24.000000 -s 17 -x 73.097388 -y 63.649193 -U 0.000000 -V 0.000000 -T 0.000000
n -t 24.000000 -s 19 -x 29.543544 -y 59.277673 -U 0.000000 -V 0.000000 -T 0.000000
n -t 24.000000 -s 10 -x 68.594314 -y 90.103677 -U 0.000000 -V 0.000000 -T 0.000000
n -t 24.000000 -s 12 -x 38.573447 -y 88.933083 -U 0.000000 -V 0.000000 -T 0.000000
n -t 24.000000 -s 14 -x 55.127848 -y 95.104415 -U 0.000000 -V 0.000000 -T 0.000000
n -t 24.000000 -s 5 -x 31.906939 -y 41.269222 -U 0.000000 -V 0.000000 -T 0.000000
n -t 24.000000 -s 16 -x 83.441440 -y 99.784280 -U 0.000000 -V 0.000000 -T 0.000000
n -t 25.000000 -s 3 -x 70.453746 -y 49.965065 -U 0.000000 -V 0.000000 -T 0.000000
n -t 25.000000 -s 17 -x 73.097388 -y 63.649193 -U 0.000000 -V 0.000000 -T 0.000000
n -t 25.000000 -s 19 -x 29.543544 -y 59.277673 -U 0.000000 -V 0.000000 -T 0.000000
n -t 25.000000 -s 10 -x 68.594314 -y 90.103677 -U 0.000000 -V 0.000000 -T 0.000000
n -t 25.000000 -s 12 -x 38.573447 -y 88.933083 -U 0.000000 -V 0.000000 -T 0.000000
n -t 25.000000 -s 14 -x 55.127848 -y 95.104415 -U 0.000000 -V 0.000000 -T 0.000000
n -t 25.000000 -s 5 -x 31.906939 -y 41.269222 -U 0.000000 -V 0.000000 -T 0.000000
n -t 25.000000 -s 16 -x 83.441440 -y 99.784280 -U 0.000000 -V 0.000000 -T 0.000000
n -t 26.000000 -s 3 -x 70.453746 -y 49.965065 -U 0.000000 -V 0.000000 -T 0.000000
n -t 26.000000 -s 17 -x 73.097388 -y 63.649193 -U 0.000000 -V 0.000000 -T 0.000000
n -t 26.000000 -s 19 -x 29.543544 -y 59.277673 -U 0.000000 -V 0.000000 -T 0.000000
n -t 26.000000 -s 10 -x 68.594314 -y 90.103677 -U 0.000000 -V 0.000000 -T 0.000000
n -t 26.000000 -s 12 -x 38.573447 -y 88.933083 -U 0.000000 -V 0.000000 -T 0.000000
n -t 26.000000 -s 14 -x 55.127848 -y 95.104415 -U 0.000000 -V 0.000000 -T 0.000000
n -t 26.000000 -s 5 -x 31.906939 -y 41.269222 -U 0.000000 -V 0.000000 -T 0.000000
n -t 26.000000 -s 16 -x 83.441440 -y 99.784280 -U 0.000000 -V 0.000000 -T 0.000000
n -t 27.000000 -s 3 -x 70.453746 -y 49.965065 -U 0.000000 -V 0.000000 -T 0.000000
n -t 27.000000 -s 17 -x 73.097388 -y 63.649193 -U 0.000000 -V 0.000000 -T 0.000000
n -t 27.000000 -s 19 -x 29.543544 -y 59.277673 -U 0.000000 -V 0.000000 -T 0.000000
n -t 27.000000 -s 10 -x 68.594314 -y 90.103677 -U 0.000000 -V 0.000000 -T 0.000000
n -t 27.000000 -s 12 -x 38.573447 -y 88.933083 -U 0.000000 -V 0.000000 -T 0.000000
n -t 27.000000 -s 14 -x 55.127848 -y 95.104415 -U 0.000000 -V 0.000000 -T 0.000000
n -t 27.000000 -s 5 -x 31.906939 -y 41.269222 -U 0.000000 -V 0.000000 -T 0.000000
n -t 27.000000 -s 16 -x 83.441440 -y 99.784280 -U 0.000000 -V 0.000000 -T 0.000000
n -t 28.000000 -s 2 -x 53.792624 -y 71.393601 -U 0.000000 -V 0.000000 -T 0.000000
n -t 28.000000 -s 3 -x 70.453746 -y 49.965065 -U 0.000000 -V 0.000000 -T 0.000000
n -t 28.000000 -s 17 -x 73.097388 -y 63.649193 -U 0.000000 -V 0.000000 -T 0.000000
n -t 28.000000 -s 19 -x 29.543544 -y 59.277673 -U 0.000000 -V 0.000000 -T 0.000000
n -t 28.000000 -s 10 -x 68.594314 -y 90.103677 -U 0.000000 -V 0.000000 -T 0.000000
n -t 28.000000 -s 12 -x 38.573447 -y 88.933083 -U 0.000000 -V 0.000000 -T 0.000000
n -t 28.000000 -s 14 -x 55.127848 -y 95.104415 -U 0.000000 -V 0.000000 -T 0.000000
n -t 28.000000 -s 5 -x 31.906939 -y 41.269222 -U 0.000000 -V 0.000000 -T 0.000000
n -t 28.000000 -s 16 -x 83.441440 -y 99.784280 -U 0.000000 -V 0.000000 -T 0.000000
n -t 28.000000 -s 2 -x 53.792624 -y 71.393601 -U -0.200983 -V -0.979595 -T 8.006637
n -t 28.000000 -s 3 -x 70.453746 -y 49.965065 -U -0.999536 -V -0.030465 -T 18.278803
n -t 28.000000 -s 17 -x 73.097388 -y 63.649193 -U -0.429437 -V -0.903097 -T 15.769062
n -t 28.000000 -s 5 -x 31.906939 -y 41.269222 -U 0.601889 -V 0.798579 -T 10.191827
n -t 28.000000 -s 8 -x 87.261380 -y 50.767040 -U -0.853478 -V 0.521129 -T 24.530006
n -t 28.000000 -s 19 -x 29.543544 -y 59.277673 -U 0.893424 -V 0.449214 -T 9.511436
n -t 28.000000 -s 10 -x 68.594314 -y 90.103677 -U -0.179819 -V -0.983700 -T 12.616859
n -t 28.000000 -s 12 -x 38.573447 -y 88.933083 -U -0.047289 -V -0.998881 -T 11.253196
n -t 28.000000 -s 14 -x 55.127848 -y 95.104415 -U -0.166736 -V -0.986002 -T 17.659140
n -t 28.000000 -s 3 -x 70.453746 -y 49.965065 -U 0.000000 -V 0.000000 -T 0.000000
n -t 28.000000 -s 17 -x 73.097388 -y 63.649193 -U 0.000000 -V 0.000000 -T 0.000000
n -t 28.000000 -s 5 -x 31.906939 -y 41.269222 -U 0.000000 -V 0.000000 -T 0.000000
n -t 28.000000 -s 8 -x 87.261380 -y 50.767040 -U 0.000000 -V 0.000000 -T 0.000000
n -t 28.000000 -s 19 -x 29.543544 -y 59.277673 -U 0.000000 -V 0.000000 -T 0.000000
n -t 28.000000 -s 10 -x 68.594314 -y 90.103677 -U 0.000000 -V 0.000000 -T 0.000000
n -t 28.000000 -s 12 -x 38.573447 -y 88.933083 -U 0.000000 -V 0.000000 -T 0.000000
n -t 28.000000 -s 14 -x 55.127848 -y 95.104415 -U 0.000000 -V 0.000000 -T 0.000000
n -t 29.000000 -s 3 -x 70.453746 -y 49.965065 -U 0.000000 -V 0.000000 -T 0.000000
n -t 29.000000 -s 17 -x 73.097388 -y 63.649193 -U 0.000000 -V 0.000000 -T 0.000000
n -t 29.000000 -s 5 -x 31.906939 -y 41.269222 -U 0.000000 -V 0.000000 -T 0.000000
n -t 29.000000 -s 8 -x 87.261380 -y 50.767040 -U 0.000000 -V 0.000000 -T 0.000000
n -t 29.000000 -s 19 -x 29.543544 -y 59.277673 -U 0.000000 -V 0.000000 -T 0.000000
n -t 29.000000 -s 10 -x 68.594314 -y 90.103677 -U 0.000000 -V 0.000000 -T 0.000000
n -t 29.000000 -s 12 -x 38.573447 -y 88.933083 -U 0.000000 -V 0.000000 -T 0.000000
n -t 29.000000 -s 14 -x 55.127848 -y 95.104415 -U 0.000000 -V 0.000000 -T 0.000000
n -t 30.000000 -s 3 -x 70.453746 -y 49.965065 -U 0.000000 -V 0.000000 -T 0.000000
n -t 30.000000 -s 17 -x 73.097388 -y 63.649193 -U 0.000000 -V 0.000000 -T 0.000000
n -t 30.000000 -s 5 -x 31.906939 -y 41.269222 -U 0.000000 -V 0.000000 -T 0.000000
n -t 30.000000 -s 8 -x 87.261380 -y 50.767040 -U 0.000000 -V 0.000000 -T 0.000000
n -t 30.000000 -s 19 -x 29.543544 -y 59.277673 -U 0.000000 -V 0.000000 -T 0.000000
n -t 30.000000 -s 10 -x 68.594314 -y 90.103677 -U 0.000000 -V 0.000000 -T 0.000000
n -t 30.000000 -s 12 -x 38.573447 -y 88.933083 -U 0.000000 -V 0.000000 -T 0.000000
n -t 30.000000 -s 14 -x 55.127848 -y 95.104415 -U 0.000000 -V 0.000000 -T 0.000000
n -t 31.000000 -s 3 -x 70.453746 -y 49.965065 -U 0.000000 -V 0.000000 -T 0.000000
n -t 31.000000 -s 17 -x 73.097388 -y 63.649193 -U 0.000000 -V 0.000000 -T 0.000000
n -t 31.000000 -s 5 -x 31.906939 -y 41.269222 -U 0.000000 -V 0.000000 -T 0.000000
n -t 31.000000 -s 8 -x 87.261380 -y 50.767040 -U 0.000000 -V 0.000000 -T 0.000000
n -t 31.000000 -s 19 -x 29.543544 -y 59.277673 -U 0.000000 -V 0.000000 -T 0.000000
n -t 31.000000 -s 10 -x 68.594314 -y 90.103677 -U 0.000000 -V 0.000000 -T 0.000000
n -t 31.000000 -s 12 -x 38.573447 -y 88.933083 -U 0.000000 -V 0.000000 -T 0.000000
n -t 31.000000 -s 14 -x 55.127848 -y 95.104415 -U 0.000000 -V 0.000000 -T 0.000000
n -t 32.000000 -s 3 -x 70.453746 -y 49.965065 -U 0.000000 -V 0.000000 -T 0.000000
n -t 32.000000 -s 17 -x 73.097388 -y 63.649193 -U 0.000000 -V 0.000000 -T 0.000000
n -t 32.000000 -s 5 -x 31.906939 -y 41.269222 -U 0.000000 -V 0.000000 -T 0.000000
n -t 32.000000 -s 8 -x 87.261380 -y 50.767040 -U 0.000000 -V 0.000000 -T 0.000000
n -t 32.000000 -s 19 -x 29.543544 -y 59.277673 -U 0.000000 -V 0.000000 -T 0.000000
n -t 32.000000 -s 10 -x 68.594314 -y 90.103677 -U 0.000000 -V 0.000000 -T 0.000000
n -t 32.000000 -s 12 -x 38.573447 -y 88.933083 -U 0.000000 -V 0.000000 -T 0.000000
n -t 32.000000 -s 14 -x 55.127848 -y 95.104415 -U 0.000000 -V 0.000000 -T 0.000000
n -t 33.000000 -s 3 -x 70.453746 -y 49.965065 -U 0.000000 -V 0.000000 -T 0.000000
n -t 33.000000 -s 17 -x 73.097388 -y 63.649193 -U 0.000000 -V 0.000000 -T 0.000000
n -t 33.000000 -s 5 -x 31.906939 -y 41.269222 -U 0.000000 -V 0.000000 -T 0.000000
n -t 33.000000 -s 8 -x 87.261380 -y 50.767040 -U 0.000000 -V 0.000000 -T 0.000000
n -t 33.000000 -s 19 -x 29.543544 -y 59.277673 -U 0.000000 -V 0.000000 -T 0.000000
n -t 33.000000 -s 10 -x 68.594314 -y 90.103677 -U 0.000000 -V 0.000000 -T 0.000000
n -t 33.000000 -s 12 -x 38.573447 -y 88.933083 -U 0.000000 -V 0.000000 -T 0.000000
n -t 33.000000 -s 14 -x 55.127848 -y 95.104415 -U 0.000000 -V 0.000000 -T 0.000000
n -t 34.000000 -s 3 -x 70.453746 -y 49.965065 -U 0.000000 -V 0.000000 -T 0.000000
n -t 34.000000 -s 17 -x 73.097388 -y 63.649193 -U 0.000000 -V 0.000000 -T 0.000000
n -t 34.000000 -s 5 -x 31.906939 -y 41.269222 -U 0.000000 -V 0.000000 -T 0.000000
n -t 34.000000 -s 8 -x 87.261380 -y 50.767040 -U 0.000000 -V 0.000000 -T 0.000000
n -t 34.000000 -s 19 -x 29.543544 -y 59.277673 -U 0.000000 -V 0.000000 -T 0.000000
n -t 34.000000 -s 10 -x 68.594314 -y 90.103677 -U 0.000000 -V 0.000000 -T 0.000000