n -t * -s 0  -x 50.394939999999998 -y 58.23451 -Z 0 -z 1  -v circle -c black
n -t * -s 1  -x 7.9227970000000001 -y 62.263539999999999 -Z 0 -z 1  -v circle -c black
n -t * -s 2  -x 48.349640000000001 -y 16.893830000000001 -Z 0 -z 1  -v circle -c black
n -t * -s 3  -x 86.87321 -y 31.659410000000001 -Z 0 -z 1  -v circle -c black
n -t * -s 4  -x 19.172930000000001 -y 83.446280000000002 -Z 0 -z 1  -v circle -c black
n -t * -s 5  -x 77.281279999999995 -y 20.23197 -Z 0 -z 1  -v circle -c black
n -t * -s 6  -x 19.172740000000001 -y 91.206180000000003 -Z 0 -z 1  -v circle -c black
n -t * -s 7  -x 16.675319999999999 -y 19.827719999999999 -Z 0 -z 1  -v circle -c black
n -t * -s 8  -x 12.07957 -y 6.5331729999999997 -Z 0 -z 1  -v circle -c black
n -t * -s 9  -x 49.189160000000001 -y 21.227869999999999 -Z 0 -z 1  -v circle -c black
n -t * -s 10  -x 41.862879999999997 -y 37.103430000000003 -Z 0 -z 2  -v circle -c black
V -t * -v 1.0a5 -a 0
W -t * -x 100 -y 100
A -t * -n 1 -p 0 -o 0x7fffffff -c 30 -a 1
A -t * -h 1 -m 1073741823 -s 0
n -t 0 -s 10 -S COLOR -c red -o black -i red -I black
n -t 0.000000 -s 10 -x 41.862880 -y 37.103430 -U 1.909053 -V 0.007238 -T 16.007123
n -t 22.000000 -s 10 -x 72.421330 -y 37.219290 -U -0.416132 -V -0.964187 -T 33.506833
n -t 67.000000 -s 10 -x 58.478080 -y 4.912449 -U 0.570207 -V 0.991714 -T 45.758170
