n -t * -s 0  -x 85.313580000000002 -y 43.961329999999997 -Z 0 -z 1  -v circle -c black
n -t * -s 1  -x 46.088850000000001 -y 71.14528 -Z 0 -z 1  -v circle -c black
n -t * -s 2  -x 36.589829999999999 -y 12.6647 -Z 0 -z 1  -v circle -c black
n -t * -s 3  -x 12.89283 -y 91.308300000000003 -Z 0 -z 1  -v circle -c black
n -t * -s 4  -x 15.45778 -y 82.667469999999994 -Z 0 -z 1  -v circle -c black
n -t * -s 5  -x 27.65408 -y 38.631140000000002 -Z 0 -z 1  -v circle -c black
n -t * -s 6  -x 98.917299999999997 -y 80.902619999999999 -Z 0 -z 1  -v circle -c black
n -t * -s 7  -x 28.071580000000001 -y 59.093029999999999 -Z 0 -z 1  -v circle -c black
n -t * -s 8  -x 31.059059999999999 -y 10.142379999999999 -Z 0 -z 1  -v circle -c black
n -t * -s 9  -x 29.144919999999999 -y 58.00159 -Z 0 -z 1  -v circle -c black
n -t * -s 10  -x 0.95793539999999999 -y 85.018190000000004 -Z 0 -z 2  -v circle -c black
V -t * -v 1.0a5 -a 0
W -t * -x 100 -y 100
A -t * -n 1 -p 0 -o 0x7fffffff -c 30 -a 1
A -t * -h 1 -m 1073741823 -s 0
n -t 0 -s 10 -S COLOR -c red -o black -i red -I black
n -t 0.000000 -s 10 -x 0.957935 -y 85.018190 -U 1.310774 -V -2.019462 -T 40.602517
n -t 0.000000 -s 3 -x 12.892830 -y 91.308300 -U -0.884656 -V -0.466245 -T 13.491004
n -t 0.000000 -s 4 -x 15.457780 -y 82.667470 -U -0.030322 -V -0.999540 -T 11.796840
n -t 0.000000 -s 7 -x 28.071580 -y 59.093030 -U -0.447460 -V 0.894304 -T 28.989204
n -t 0.000000 -s 9 -x 29.144920 -y 58.001590 -U -0.909609 -V 0.415466 -T 30.988029
n -t 0.000000 -s 3 -x 12.892830 -y 91.308300 -U -0.884656 -V -0.466245 -T 8.491004
n -t 1.000000 -s 3 -x 12.008174 -y 90.842055 -U 0.000000 -V 0.000000 -T 0.000000
n -t 1.000000 -s 4 -x 15.427458 -y 81.667930 -U 0.000000 -V 0.000000 -T 0.000000
n -t 1.000000 -s 7 -x 27.624120 -y 59.987334 -U 0.000000 -V 0.000000 -T 0.000000
n -t 1.000000 -s 9 -x 28.235311 -y 58.417056 -U 0.000000 -V 0.000000 -T 0.000000
n -t 1.000000 -s 3 -x 12.008174 -y 90.842055 -U -0.778846 -V -0.627215 -T 12.504997
n -t 1.000000 -s 4 -x 15.427458 -y 81.667930 -U 0.076534 -V -0.997067 -T 12.849024
n -t 1.000000 -s 7 -x 27.624120 -y 59.987334 -U -0.438051 -V 0.898950 -T 25.598082
n -t 1.000000 -s 9 -x 28.235311 -y 58.417056 -U -0.927824 -V 0.373019 -T 27.986574
n -t 1.000000 -s 3 -x 12.008174 -y 90.842055 -U -0.778846 -V -0.627215 -T 7.504997
n -t 2.000000 -s 3 -x 11.229328 -y 90.214840 -U 0.000000 -V 0.000000 -T 0.000000
n -t 2.000000 -s 4 -x 15.503992 -y 80.670863 -U 0.000000 -V 0.000000 -T 0.000000
n -t 2.000000 -s 7 -x 27.186069 -y 60.886284 -U 0.000000 -V 0.000000 -T 0.000000
n -t 2.000000 -s 9 -x 27.307488 -y 58.790075 -U 0.000000 -V 0.000000 -T 0.000000
n -t 2.000000 -s 4 -x 15.503992 -y 80.670863 -U -0.999666 -V 0.025854 -T 11.928495
n -t 2.000000 -s 7 -x 27.186069 -y 60.886284 -U -0.846565 -V 0.532285 -T 11.179820
n -t 2.000000 -s 3 -x 11.229328 -y 90.214840 -U 0.575090 -V -0.818090 -T 11.289183
n -t 2.000000 -s 9 -x 27.307488 -y 58.790075 -U -0.947021 -V 0.321170 -T 25.055404
n -t 2.000000 -s 4 -x 15.503992 -y 80.670863 -U -0.999666 -V 0.025854 -T 6.928495
n -t 3.000000 -s 4 -x 14.504326 -y 80.696717 -U 0.000000 -V 0.000000 -T 0.000000
n -t 3.000000 -s 7 -x 26.339503 -y 61.418569 -U 0.000000 -V 0.000000 -T 0.000000
n -t 3.000000 -s 3 -x 11.804418 -y 89.396749 -U 0.000000 -V 0.000000 -T 0.000000
n -t 3.000000 -s 9 -x 26.360466 -y 59.111246 -U 0.000000 -V 0.000000 -T 0.000000
n -t 3.000000 -s 4 -x 14.504326 -y 80.696717 -U -0.984069 -V -0.177786 -T 9.769706
n -t 3.000000 -s 7 -x 26.339503 -y 61.418569 -U -0.906700 -V 0.421776 -T 8.059016
n -t 3.000000 -s 3 -x 11.804418 -y 89.396749 -U 0.569338 -V -0.822104 -T 12.695410
n -t 3.000000 -s 9 -x 26.360466 -y 59.111246 -U -0.966447 -V 0.256866 -T 22.215605
n -t 3.000000 -s 1 -x 46.088850 -y 71.145280 -U -0.776489 -V 0.630131 -T 34.844609
n -t 3.000000 -s 4 -x 14.504326 -y 80.696717 -U -0.984069 -V -0.177786 -T 4.769706
n -t 3.000000 -s 7 -x 26.339503 -y 61.418569 -U 0.000000 -V 0.000000 -T 0.000000
n -t 3.000000 -s 3 -x 11.804418 -y 89.396749 -U 0.000000 -V 0.000000 -T 0.000000
n -t 3.000000 -s 9 -x 26.360466 -y 59.111246 -U 0.000000 -V 0.000000 -T 0.000000
n -t 3.000000 -s 1 -x 46.088850 -y 71.145280 -U 0.000000 -V 0.000000 -T 0.000000
n -t 4.000000 -s 4 -x 13.520257 -y 80.518932 -U -0.898370 -V -0.439240 -T 3.147229
n -t 4.000000 -s 7 -x 26.339503 -y 61.418569 -U 0.000000 -V 0.000000 -T 0.000000
n -t 4.000000 -s 3 -x 11.804418 -y 89.396749 -U 0.000000 -V 0.000000 -T 0.000000
n -t 4.000000 -s 9 -x 26.360466 -y 59.111246 -U 0.000000 -V 0.000000 -T 0.000000
n -t 4.000000 -s 1 -x 46.088850 -y 71.145280 -U 0.000000 -V 0.000000 -T 0.000000
n -t 5.000000 -s 4 -x 12.621887 -y 80.079692 -U -0.703743 -V -0.710454 -T 2.261284
n -t 5.000000 -s 7 -x 26.339503 -y 61.418569 -U 0.000000 -V 0.000000 -T 0.000000
n -t 5.000000 -s 3 -x 11.804418 -y 89.396749 -U 0.000000 -V 0.000000 -T 0.000000
n -t 5.000000 -s 9 -x 26.360466 -y 59.111246 -U 0.000000 -V 0.000000 -T 0.000000
n -t 5.000000 -s 1 -x 46.088850 -y 71.145280 -U 0.000000 -V 0.000000 -T 0.000000
n -t 6.000000 -s 4 -x 11.918144 -y 79.369237 -U -0.431712 -V -0.902012 -T 2.170437
n -t 6.000000 -s 7 -x 26.339503 -y 61.418569 -U 0.000000 -V 0.000000 -T 0.000000
n -t 6.000000 -s 3 -x 11.804418 -y 89.396749 -U 0.000000 -V 0.000000 -T 0.000000
n -t 6.000000 -s 9 -x 26.360466 -y 59.111246 -U 0.000000 -V 0.000000 -T 0.000000
n -t 6.000000 -s 1 -x 46.088850 -y 71.145280 -U 0.000000 -V 0.000000 -T 0.000000
n -t 7.000000 -s 4 -x 11.486432 -y 78.467226 -U 0.000000 -V 0.000000 -T 0.000000
n -t 7.000000 -s 7 -x 26.339503 -y 61.418569 -U 0.000000 -V 0.000000 -T 0.000000
n -t 7.000000 -s 3 -x 11.804418 -y 89.396749 -U 0.000000 -V 0.000000 -T 0.000000
n -t 7.000000 -s 9 -x 26.360466 -y 59.111246 -U 0.000000 -V 0.000000 -T 0.000000
n -t 7.000000 -s 1 -x 46.088850 -y 71.145280 -U 0.000000 -V 0.000000 -T 0.000000
n -t 7.000000 -s 4 -x 11.486432 -y 78.467226 -U -0.175610 -V -0.984460 -T 7.705005
n -t 7.000000 -s 9 -x 26.360466 -y 59.111246 -U -0.660293 -V -0.751008 -T 3.157653
n -t 7.000000 -s 7 -x 26.339503 -y 61.418569 -U -0.213095 -V 0.977031 -T 9.685860
n -t 7.000000 -s 5 -x 27.654080 -y 38.631140 -U -0.695343 -V 0.718678 -T 25.197225
n -t 7.000000 -s 3 -x 11.804418 -y 89.396749 -U 0.943675 -V -0.330875 -T 13.215437
n -t 7.000000 -s 1 -x 46.088850 -y 71.145280 -U -0.954464 -V -0.298326 -T 48.287672
n -t 7.000000 -s 9 -x 26.360466 -y 59.111246 -U -0.889650 -V 0.456643 -T 10.291734
n -t 7.000000 -s 4 -x 11.486432 -y 78.467226 -U -0.175610 -V -0.984460 -T 2.705005
n -t 7.000000 -s 9 -x 26.360466 -y 59.111246 -U 0.000000 -V 0.000000 -T 0.000000
n -t 7.000000 -s 7 -x 26.339503 -y 61.418569 -U 0.000000 -V 0.000000 -T 0.000000
n -t 7.000000 -s 5 -x 27.654080 -y 38.631140 -U 0.000000 -V 0.000000 -T 0.000000
n -t 7.000000 -s 3 -x 11.804418 -y 89.396749 -U 0.000000 -V 0.000000 -T 0.000000
n -t 7.000000 -s 1 -x 46.088850 -y 71.145280 -U 0.000000 -V 0.000000 -T 0.000000
n -t 8.000000 -s 9 -x 26.360466 -y 59.111246 -U -0.889650 -V 0.456643 -T 10.291734
n -t 8.000000 -s 4 -x 11.310822 -y 77.482766 -U 0.015463 -V -0.999880 -T 3.621300
n -t 8.000000 -s 9 -x 26.360466 -y 59.111246 -U 0.000000 -V 0.000000 -T 0.000000
n -t 8.000000 -s 7 -x 26.339503 -y 61.418569 -U 0.000000 -V 0.000000 -T 0.000000
n -t 8.000000 -s 5 -x 27.654080 -y 38.631140 -U 0.000000 -V 0.000000 -T 0.000000
n -t 8.000000 -s 3 -x 11.804418 -y 89.396749 -U 0.000000 -V 0.000000 -T 0.000000
n -t 8.000000 -s 1 -x 46.088850 -y 71.145280 -U 0.000000 -V 0.000000 -T 0.000000
n -t 9.000000 -s 9 -x 26.360466 -y 59.111246 -U -0.889650 -V 0.456643 -T 10.291734
n -t 9.000000 -s 4 -x 11.326284 -y 76.482886 -U 0.146598 -V -0.989196 -T 4.745136
n -t 9.000000 -s 9 -x 26.360466 -y 59.111246 -U 0.000000 -V 0.000000 -T 0.000000
n -t 9.000000 -s 7 -x 26.339503 -y 61.418569 -U 0.000000 -V 0.000000 -T 0.000000
n -t 9.000000 -s 5 -x 27.654080 -y 38.631140 -U 0.000000 -V 0.000000 -T 0.000000
n -t 9.000000 -s 3 -x 11.804418 -y 89.396749 -U 0.000000 -V 0.000000 -T 0.000000
n -t 9.000000 -s 1 -x 46.088850 -y 71.145280 -U 0.000000 -V 0.000000 -T 0.000000
n -t 10.000000 -s 9 -x 26.360466 -y 59.111246 -U -0.889650 -V 0.456643 -T 10.291734
n -t 10.000000 -s 4 -x 11.472882 -y 75.493689 -U 0.236125 -V -0.971723 -T 5.980618
n -t 11.000000 -s 4 -x 11.709007 -y 74.521967 -U 0.000000 -V 0.000000 -T 0.000000
n -t 11.000000 -s 9 -x 25.470816 -y 59.567888 -U 0.000000 -V 0.000000 -T 0.000000
n -t 11.000000 -s 7 -x 26.339503 -y 61.418569 -U 0.000000 -V 0.000000 -T 0.000000
n -t 11.000000 -s 5 -x 27.654080 -y 38.631140 -U 0.000000 -V 0.000000 -T 0.000000
n -t 11.000000 -s 3 -x 11.804418 -y 89.396749 -U 0.000000 -V 0.000000 -T 0.000000
n -t 11.000000 -s 1 -x 46.088850 -y 71.145280 -U 0.000000 -V 0.000000 -T 0.000000
n -t 11.000000 -s 9 -x 25.470816 -y 59.567888 -U -0.952259 -V 0.305291 -T 10.600439
n -t 11.000000 -s 5 -x 27.654080 -y 38.631140 -U 0.182747 -V 0.983160 -T 10.202649
n -t 11.000000 -s 7 -x 26.339503 -y 61.418569 -U 0.916718 -V 0.399534 -T 3.467897
n -t 11.000000 -s 4 -x 11.709007 -y 74.521967 -U 0.140414 -V -0.990093 -T 26.118754
n -t 11.000000 -s 1 -x 46.088850 -y 71.145280 -U -0.943834 -V 0.330420 -T 17.556332
n -t 11.000000 -s 3 -x 11.804418 -y 89.396749 -U -0.251168 -V -0.967944 -T 42.083831
n -t 11.000000 -s 9 -x 25.470816 -y 59.567888 -U -0.952259 -V 0.305291 -T 5.600439
n -t 12.000000 -s 9 -x 24.518557 -y 59.873180 -U 0.000000 -V 0.000000 -T 0.000000
n -t 12.000000 -s 5 -x 27.836827 -y 39.614300 -U 0.000000 -V 0.000000 -T 0.000000
n -t 12.000000 -s 7 -x 27.256222 -y 61.818103 -U 0.000000 -V 0.000000 -T 0.000000
n -t 12.000000 -s 4 -x 11.849421 -y 73.531874 -U 0.000000 -V 0.000000 -T 0.000000
n -t 12.000000 -s 1 -x 45.145016 -y 71.475700 -U 0.000000 -V 0.000000 -T 0.000000
n -t 12.000000 -s 3 -x 11.553250 -y 88.428806 -U 0.000000 -V 0.000000 -T 0.000000
n -t 12.000000 -s 9 -x 24.518557 -y 59.873180 -U -0.993295 -V 0.115607 -T 7.884194
n -t 12.000000 -s 5 -x 27.836827 -y 39.614300 -U 0.391755 -V 0.920069 -T 7.638786
n -t 12.000000 -s 7 -x 27.256222 -y 61.818103 -U 0.960627 -V -0.277840 -T 3.719591
n -t 12.000000 -s 4 -x 11.849421 -y 73.531874 -U 0.177072 -V -0.984198 -T 27.321091
n -t 12.000000 -s 1 -x 45.145016 -y 71.475700 -U -0.972151 -V 0.234357 -T 14.725757
n -t 12.000000 -s 3 -x 11.553250 -y 88.428806 -U -0.210736 -V -0.977543 -T 42.746241
n -t 12.000000 -s 5 -x 27.836827 -y 39.614300 -U -0.277880 -V 0.960616 -T 14.677336
n -t 12.000000 -s 9 -x 24.518557 -y 59.873180 -U -0.993295 -V 0.115607 -T 2.884194
n -t 12.000000 -s 5 -x 27.836827 -y 39.614300 -U 0.000000 -V 0.000000 -T 0.000000
n -t 12.000000 -s 7 -x 27.256222 -y 61.818103 -U 0.000000 -V 0.000000 -T 0.000000
n -t 12.000000 -s 4 -x 11.849421 -y 73.531874 -U 0.000000 -V 0.000000 -T 0.000000
n -t 12.000000 -s 1 -x 45.145016 -y 71.475700 -U 0.000000 -V 0.000000 -T 0.000000
n -t 12.000000 -s 3 -x 11.553250 -y 88.428806 -U 0.000000 -V 0.000000 -T 0.000000
n -t 13.000000 -s 5 -x 27.836827 -y 39.614300 -U -0.277880 -V 0.960616 -T 14.677336
n -t 13.000000 -s 9 -x 23.525262 -y 59.988787 -U -0.976362 -V -0.216142 -T 0.661079
n -t 13.000000 -s 5 -x 27.836827 -y 39.614300 -U 0.000000 -V 0.000000 -T 0.000000
n -t 13.000000 -s 7 -x 27.256222 -y 61.818103 -U 0.000000 -V 0.000000 -T 0.000000
n -t 13.000000 -s 4 -x 11.849421 -y 73.531874 -U 0.000000 -V 0.000000 -T 0.000000
n -t 13.000000 -s 1 -x 45.145016 -y 71.475700 -U 0.000000 -V 0.000000 -T 0.000000
n -t 13.000000 -s 3 -x 11.553250 -y 88.428806 -U 0.000000 -V 0.000000 -T 0.000000
n -t 14.000000 -s 5 -x 27.836827 -y 39.614300 -U -0.277880 -V 0.960616 -T 14.677336
n -t 14.000000 -s 5 -x 27.836827 -y 39.614300 -U 0.000000 -V 0.000000 -T 0.000000
n -t 14.000000 -s 7 -x 27.256222 -y 61.818103 -U 0.000000 -V 0.000000 -T 0.000000
n -t 14.000000 -s 4 -x 11.849421 -y 73.531874 -U 0.000000 -V 0.000000 -T 0.000000
n -t 14.000000 -s 1 -x 45.145016 -y 71.475700 -U 0.000000 -V 0.000000 -T 0.000000
n -t 14.000000 -s 3 -x 11.553250 -y 88.428806 -U 0.000000 -V 0.000000 -T 0.000000
n -t 15.000000 -s 5 -x 27.836827 -y 39.614300 -U -0.277880 -V 0.960616 -T 14.677336
n -t 15.000000 -s 9 -x 22.879810 -y 59.845900 -U -0.403879 -V -0.914812 -T 0.596378
n -t 15.000000 -s 5 -x 27.836827 -y 39.614300 -U 0.000000 -V 0.000000 -T 0.000000
n -t 15.000000 -s 7 -x 27.256222 -y 61.818103 -U 0.000000 -V 0.000000 -T 0.000000
n -t 15.000000 -s 4 -x 11.849421 -y 73.531874 -U 0.000000 -V 0.000000 -T 0.000000
n -t 15.000000 -s 1 -x 45.145016 -y 71.475700 -U 0.000000 -V 0.000000 -T 0.000000
n -t 15.000000 -s 3 -x 11.553250 -y 88.428806 -U 0.000000 -V 0.000000 -T 0.000000
n -t 16.000000 -s 9 -x 22.638946 -y 59.300326 -U 0.000000 -V 0.000000 -T 0.000000
n -t 16.000000 -s 5 -x 27.836827 -y 39.614300 -U 0.000000 -V 0.000000 -T 0.000000
n -t 16.000000 -s 7 -x 27.256222 -y 61.818103 -U 0.000000 -V 0.000000 -T 0.000000
n -t 16.000000 -s 4 -x 11.849421 -y 73.531874 -U 0.000000 -V 0.000000 -T 0.000000
n -t 16.000000 -s 1 -x 45.145016 -y 71.475700 -U 0.000000 -V 0.000000 -T 0.000000
n -t 16.000000 -s 3 -x 11.553250 -y 88.428806 -U 0.000000 -V 0.000000 -T 0.000000
n -t 16.000000 -s 9 -x 22.638946 -y 59.300326 -U -0.106857 -V -0.994274 -T 6.631493
n -t 16.000000 -s 5 -x 27.836827 -y 39.614300 -U 0.991976 -V -0.126428 -T 8.302250
n -t 16.000000 -s 7 -x 27.256222 -y 61.818103 -U 0.695375 -V -0.718647 -T 12.678400
n -t 16.000000 -s 4 -x 11.849421 -y 73.531874 -U 0.277014 -V -0.960866 -T 36.391347
n -t 16.000000 -s 1 -x 45.145016 -y 71.475700 -U -0.890845 -V -0.454307 -T 10.184214
n -t 16.000000 -s 3 -x 11.553250 -y 88.428806 -U -0.075292 -V -0.997162 -T 50.006080
n -t 16.000000 -s 9 -x 22.638946 -y 59.300326 -U -0.106857 -V -0.994274 -T 1.631493
n -t 16.000000 -s 5 -x 27.836827 -y 39.614300 -U 0.000000 -V 0.000000 -T 0.000000
n -t 16.000000 -s 7 -x 27.256222 -y 61.818103 -U 0.000000 -V 0.000000 -T 0.000000
n -t 16.000000 -s 4 -x 11.849421 -y 73.531874 -U 0.000000 -V 0.000000 -T 0.000000
n -t 16.000000 -s 1 -x 45.145016 -y 71.475700 -U 0.000000 -V 0.000000 -T 0.000000
n -t 16.000000 -s 3 -x 11.553250 -y 88.428806 -U 0.000000 -V 0.000000 -T 0.000000
n -t 17.000000 -s 9 -x 22.532089 -y 58.306052 -U 0.092661 -V -0.995698 -T 2.651630
n -t 17.000000 -s 5 -x 27.836827 -y 39.614300 -U 0.000000 -V 0.000000 -T 0.000000
n -t 17.000000 -s 7 -x 27.256222 -y 61.818103 -U 0.000000 -V 0.000000 -T 0.000000
n -t 17.000000 -s 4 -x 11.849421 -y 73.531874 -U 0.000000 -V 0.000000 -T 0.000000
n -t 17.000000 -s 1 -x 45.145016 -y 71.475700 -U 0.000000 -V 0.000000 -T 0.000000
n -t 17.000000 -s 3 -x 11.553250 -y 88.428806 -U 0.000000 -V 0.000000 -T 0.000000
n -t 18.000000 -s 9 -x 22.624750 -y 57.310354 -U 0.217638 -V -0.976030 -T 3.854726
n -t 18.000000 -s 5 -x 27.836827 -y 39.614300 -U 0.000000 -V 0.000000 -T 0.000000
n -t 18.000000 -s 7 -x 27.256222 -y 61.818103 -U 0.000000 -V 0.000000 -T 0.000000
n -t 18.000000 -s 4 -x 11.849421 -y 73.531874 -U 0.000000 -V 0.000000 -T 0.000000
n -t 18.000000 -s 1 -x 45.145016 -y 71.475700 -U 0.000000 -V 0.000000 -T 0.000000
n -t 18.000000 -s 3 -x 11.553250 -y 88.428806 -U 0.000000 -V 0.000000 -T 0.000000
n -t 19.000000 -s 5 -x 27.836827 -y 39.614300 -U -0.270217 -V 0.962799 -T 2.305902
n -t 19.000000 -s 9 -x 22.842388 -y 56.334324 -U 0.000000 -V 0.000000 -T 0.000000
n -t 19.000000 -s 7 -x 27.256222 -y 61.818103 -U 0.000000 -V 0.000000 -T 0.000000
n -t 19.000000 -s 4 -x 11.849421 -y 73.531874 -U 0.000000 -V 0.000000 -T 0.000000
n -t 19.000000 -s 1 -x 45.145016 -y 71.475700 -U 0.000000 -V 0.000000 -T 0.000000
n -t 19.000000 -s 3 -x 11.553250 -y 88.428806 -U 0.000000 -V 0.000000 -T 0.000000
n -t 20.000000 -s 9 -x 22.842388 -y 56.334324 -U 0.000000 -V 0.000000 -T 0.000000
n -t 20.000000 -s 5 -x 27.566610 -y 40.577099 -U 0.000000 -V 0.000000 -T 0.000000
n -t 20.000000 -s 7 -x 27.256222 -y 61.818103 -U 0.000000 -V 0.000000 -T 0.000000
n -t 20.000000 -s 4 -x 11.849421 -y 73.531874 -U 0.000000 -V 0.000000 -T 0.000000
n -t 20.000000 -s 1 -x 45.145016 -y 71.475700 -U 0.000000 -V 0.000000 -T 0.000000
n -t 20.000000 -s 3 -x 11.553250 -y 88.428806 -U 0.000000 -V 0.000000 -T 0.000000
n -t 20.000000 -s 5 -x 27.566610 -y 40.577099 -U -0.096586 -V 0.995325 -T 4.070889
n -t 20.000000 -s 2 -x 36.589830 -y 12.664700 -U 0.256303 -V 0.966596 -T 18.438017
n -t 20.000000 -s 9 -x 22.842388 -y 56.334324 -U 0.844701 -V -0.535238 -T 21.869468
n -t 20.000000 -s 8 -x 31.059060 -y 10.142380 -U -0.187602 -V 0.982245 -T 20.712181
n -t 20.000000 -s 1 -x 45.145016 -y 71.475700 -U -0.288597 -V -0.957451 -T 13.269207
n -t 20.000000 -s 7 -x 27.256222 -y 61.818103 -U -0.413404 -V -0.910548 -T 34.409273
n -t 20.000000 -s 4 -x 11.849421 -y 73.531874 -U 0.720218 -V -0.693747 -T 21.276881
n -t 20.000000 -s 2 -x 36.589830 -y 12.664700 -U 0.000000 -V 0.000000 -T 0.000000
n -t 20.000000 -s 9 -x 22.842388 -y 56.334324 -U 0.000000 -V 0.000000 -T 0.000000
n -t 20.000000 -s 8 -x 31.059060 -y 10.142380 -U 0.000000 -V 0.000000 -T 0.000000
n -t 20.000000 -s 1 -x 45.145016 -y 71.475700 -U 0.000000 -V 0.000000 -T 0.000000
n -t 20.000000 -s 7 -x 27.256222 -y 61.818103 -U 0.000000 -V 0.000000 -T 0.000000
n -t 20.000000 -s 4 -x 11.849421 -y 73.531874 -U 0.000000 -V 0.000000 -T 0.000000
n -t 21.000000 -s 2 -x 36.589830 -y 12.664700 -U 0.000000 -V 0.000000 -T 0.000000
n -t 21.000000 -s 9 -x 22.842388 -y 56.334324 -U 0.000000 -V 0.000000 -T 0.000000
n -t 21.000000 -s 8 -x 31.059060 -y 10.142380 -U 0.000000 -V 0.000000 -T 0.000000
n -t 21.000000 -s 1 -x 45.145016 -y 71.475700 -U 0.000000 -V 0.000000 -T 0.000000
n -t 21.000000 -s 7 -x 27.256222 -y 61.818103 -U 0.000000 -V 0.000000 -T 0.000000
n -t 21.000000 -s 4 -x 11.849421 -y 73.531874 -U 0.000000 -V 0.000000 -T 0.000000
n -t 22.000000 -s 2 -x 36.589830 -y 12.664700 -U 0.000000 -V 0.000000 -T 0.000000
n -t 22.000000 -s 9 -x 22.842388 -y 56.334324 -U 0.000000 -V 0.000000 -T 0.000000
n -t 22.000000 -s 8 -x 31.059060 -y 10.142380 -U 0.000000 -V 0.000000 -T 0.000000
n -t 22.000000 -s 1 -x 45.145016 -y 71.475700 -U 0.000000 -V 0.000000 -T 0.000000
n -t 22.000000 -s 7 -x 27.256222 -y 61.818103 -U 0.000000 -V 0.000000 -T 0.000000
n -t 22.000000 -s 4 -x 11.849421 -y 73.531874 -U 0.000000 -V 0.000000 -T 0.000000
n -t 23.000000 -s 5 -x 27.276853 -y 43.563073 -U 0.608562 -V -0.793506 -T 1.291700
n -t 23.000000 -s 2 -x 36.589830 -y 12.664700 -U 0.000000 -V 0.000000 -T 0.000000
n -t 23.000000 -s 9 -x 22.842388 -y 56.334324 -U 0.000000 -V 0.000000 -T 0.000000
n -t 23.000000 -s 8 -x 31.059060 -y 10.142380 -U 0.000000 -V 0.000000 -T 0.000000
n -t 23.000000 -s 1 -x 45.145016 -y 71.475700 -U 0.000000 -V 0.000000 -T 0.000000
n -t 23.000000 -s 7 -x 27.256222 -y 61.818103 -U 0.000000 -V 0.000000 -T 0.000000
n -t 23.000000 -s 4 -x 11.849421 -y 73.531874 -U 0.000000 -V 0.000000 -T 0.000000
n -t 24.000000 -s 5 -x 27.885416 -y 42.769567 -U 0.000000 -V 0.000000 -T 0.000000
n -t 24.000000 -s 2 -x 36.589830 -y 12.664700 -U 0.000000 -V 0.000000 -T 0.000000
n -t 24.000000 -s 9 -x 22.842388 -y 56.334324 -U 0.000000 -V 0.000000 -T 0.000000
n -t 24.000000 -s 8 -x 31.059060 -y 10.142380 -U 0.000000 -V 0.000000 -T 0.000000
n -t 24.000000 -s 1 -x 45.145016 -y 71.475700 -U 0.000000 -V 0.000000 -T 0.000000
n -t 24.000000 -s 7 -x 27.256222 -y 61.818103 -U 0.000000 -V 0.000000 -T 0.000000
n -t 24.000000 -s 4 -x 11.849421 -y 73.531874 -U 0.000000 -V 0.000000 -T 0.000000
n -t 24.000000 -s 5 -x 27.885416 -y 42.769567 -U 0.588901 -V -0.808205 -T 7.694161
n -t 24.000000 -s 2 -x 36.589830 -y 12.664700 -U 0.715115 -V 0.699007 -T 13.940169
n -t 24.000000 -s 8 -x 31.059060 -y 10.142380 -U 0.506172 -V 0.862433 -T 30.621208
n -t 24.000000 -s 9 -x 22.842388 -y 56.334324 -U 0.271603 -V -0.962409 -T 35.250438
n -t 24.000000 -s 1 -x 45.145016 -y 71.475700 -U 0.067864 -V -0.997695 -T 20.830478
n -t 24.000000 -s 7 -x 27.256222 -y 61.818103 -U -0.222214 -V -0.974998 -T 40.419709
n -t 24.000000 -s 4 -x 11.849421 -y 73.531874 -U 0.669186 -V -0.743095 -T 30.734483
n -t 24.000000 -s 5 -x 27.885416 -y 42.769567 -U 0.588901 -V -0.808205 -T 2.694161
n -t 24.000000 -s 2 -x 36.589830 -y 12.664700 -U 0.000000 -V 0.000000 -T 0.000000
n -t 24.000000 -s 8 -x 31.059060 -y 10.142380 -U 0.000000 -V 0.000000 -T 0.000000
n -t 24.000000 -s 9 -x 22.842388 -y 56.334324 -U 0.000000 -V 0.000000 -T 0.000000
n -t 24.000000 -s 1 -x 45.145016 -y 71.475700 -U 0.000000 -V 0.000000 -T 0.000000
n -t 24.000000 -s 7 -x 27.256222 -y 61.818103 -U 0.000000 -V 0.000000 -T 0.000000
n -t 24.000000 -s 4 -x 11.849421 -y 73.531874 -U 0.000000 -V 0.000000 -T 0.000000
n -t 25.000000 -s 5 -x 28.474317 -y 41.961362 -U 0.577304 -V -0.816529 -T 4.099144
n -t 25.000000 -s 2 -x 36.589830 -y 12.664700 -U 0.000000 -V 0.000000 -T 0.000000
n -t 25.000000 -s 8 -x 31.059060 -y 10.142380 -U 0.000000 -V 0.000000 -T 0.000000
n -t 25.000000 -s 9 -x 22.842388 -y 56.334324 -U 0.000000 -V 0.000000 -T 0.000000
n -t 25.000000 -s 1 -x 45.145016 -y 71.475700 -U 0.000000 -V 0.000000 -T 0.000000
n -t 25.000000 -s 7 -x 27.256222 -y 61.818103 -U 0.000000 -V 0.000000 -T 0.000000
n -t 25.000000 -s 4 -x 11.849421 -y 73.531874 -U 0.000000 -V 0.000000 -T 0.000000
n -t 26.000000 -s 5 -x 29.051621 -y 41.144833 -U 0.569853 -V -0.821747 -T 5.505243
n -t 27.000000 -s 5 -x 29.621474 -y 40.323087 -U 0.000000 -V 0.000000 -T 0.000000
n -t 27.000000 -s 2 -x 36.589830 -y 12.664700 -U 0.000000 -V 0.000000 -T 0.000000
n -t 27.000000 -s 8 -x 31.059060 -y 10.142380 -U 0.000000 -V 0.000000 -T 0.000000
n -t 27.000000 -s 9 -x 22.842388 -y 56.334324 -U 0.000000 -V 0.000000 -T 0.000000
n -t 27.000000 -s 1 -x 45.145016 -y 71.475700 -U 0.000000 -V 0.000000 -T 0.000000
n -t 27.000000 -s 7 -x 27.256222 -y 61.818103 -U 0.000000 -V 0.000000 -T 0.000000
n -t 27.000000 -s 4 -x 11.849421 -y 73.531874 -U 0.000000 -V 0.000000 -T 0.000000
n -t 27.000000 -s 5 -x 29.621474 -y 40.323087 -U 0.564760 -V -0.825255 -T 11.911905
n -t 27.000000 -s 2 -x 36.589830 -y 12.664700 -U 0.966599 -V 0.256294 -T 14.381504
n -t 27.000000 -s 8 -x 31.059060 -y 10.142380 -U 0.690598 -V 0.723239 -T 28.137802
n -t 27.000000 -s 9 -x 22.842388 -y 56.334324 -U 0.320033 -V -0.947407 -T 42.203358
n -t 27.000000 -s 1 -x 45.145016 -y 71.475700 -U 0.195336 -V -0.980736 -T 27.368047
n -t 27.000000 -s 7 -x 27.256222 -y 61.818103 -U -0.110379 -V -0.993890 -T 45.747049
n -t 27.000000 -s 5 -x 29.621474 -y 40.323087 -U 0.564760 -V -0.825255 -T 6.911905
n -t 28.000000 -s 5 -x 30.186234 -y 39.497831 -U 0.000000 -V 0.000000 -T 0.000000
n -t 28.000000 -s 2 -x 37.556429 -y 12.920994 -U 0.000000 -V 0.000000 -T 0.000000
n -t 28.000000 -s 8 -x 31.749658 -y 10.865619 -U 0.000000 -V 0.000000 -T 0.000000
n -t 28.000000 -s 9 -x 23.162420 -y 55.386918 -U 0.000000 -V 0.000000 -T 0.000000
n -t 28.000000 -s 1 -x 45.340352 -y 70.494964 -U 0.000000 -V 0.000000 -T 0.000000
n -t 28.000000 -s 7 -x 27.145843 -y 60.824213 -U 0.000000 -V 0.000000 -T 0.000000
n -t 28.000000 -s 5 -x 30.186234 -y 39.497831 -U 0.561112 -V -0.827740 -T 13.318879
n -t 28.000000 -s 2 -x 37.556429 -y 12.920994 -U 0.995136 -V 0.098508 -T 14.314946
n -t 28.000000 -s 8 -x 31.749658 -y 10.865619 -U 0.751423 -V 0.659821 -T 26.685493
n -t 28.000000 -s 9 -x 23.162420 -y 55.386918 -U 0.332961 -V -0.942940 -T 43.540173
n -t 28.000000 -s 7 -x 27.145843 -y 60.824213 -U 0.804412 -V -0.594072 -T 30.650852
n -t 28.000000 -s 5 -x 30.186234 -y 39.497831 -U 0.561112 -V -0.827740 -T 8.318879
n -t 29.000000 -s 5 -x 30.747346 -y 38.670091 -U 0.000000 -V 0.000000 -T 0.000000
n -t 29.000000 -s 2 -x 38.551565 -y 13.019501 -U 0.000000 -V 0.000000 -T 0.000000
n -t 29.000000 -s 8 -x 32.501081 -y 11.525439 -U 0.000000 -V 0.000000 -T 0.000000
n -t 29.000000 -s 9 -x 23.495382 -y 54.443977 -U 0.000000 -V 0.000000 -T 0.000000
n -t 29.000000 -s 7 -x 27.950254 -y 60.230141 -U 0.000000 -V 0.000000 -T 0.000000
n -t 29.000000 -s 2 -x 38.551565 -y 13.019501 -U 0.031161 -V 0.999514 -T 13.440826
n -t 29.000000 -s 8 -x 32.501081 -y 11.525439 -U 0.999273 -V 0.038117 -T 20.626434
n -t 29.000000 -s 5 -x 30.747346 -y 38.670091 -U 0.877613 -V -0.479369 -T 25.484093
n -t 29.000000 -s 9 -x 23.495382 -y 54.443977 -U 0.344775 -V -0.938685 -T 44.884381
n -t 29.000000 -s 7 -x 27.950254 -y 60.230141 -U 0.788386 -V -0.615180 -T 31.916169
n -t 29.000000 -s 2 -x 38.551565 -y 13.019501 -U 0.031161 -V 0.999514 -T 8.440826
n -t 30.000000 -s 2 -x 38.582726 -y 14.019016 -U 0.000000 -V 0.000000 -T 0.000000
n -t 30.000000 -s 8 -x 33.500354 -y 11.563557 -U 0.000000 -V 0.000000 -T 0.000000
n -t 30.000000 -s 5 -x 31.624959 -y 38.190722 -U 0.000000 -V 0.000000 -T 0.000000
n -t 30.000000 -s 9 -x 23.840156 -y 53.505292 -U 0.000000 -V 0.000000 -T 0.000000
n -t 30.000000 -s 7 -x 28.738641 -y 59.614960 -U 0.000000 -V 0.000000 -T 0.000000
n -t 30.000000 -s 2 -x 38.582726 -y 14.019016 -U 0.160945 -V 0.986963 -T 10.552897
n -t 30.000000 -s 8 -x 33.500354 -y 11.563557 -U 0.998159 -V -0.060652 -T 20.961535
n -t 30.000000 -s 5 -x 31.624959 -y 38.190722 -U 0.856208 -V -0.516631 -T 26.627099
n -t 30.000000 -s 9 -x 23.840156 -y 53.505292 -U 0.355596 -V -0.934640 -T 46.235027
n -t 30.000000 -s 7 -x 28.738641 -y 59.614960 -U 0.773606 -V -0.633666 -T 33.201198
n -t 30.000000 -s 2 -x 38.582726 -y 14.019016 -U 0.160945 -V 0.986963 -T 5.552897
n -t 31.000000 -s 2 -x 38.743671 -y 15.005979 -U 0.000000 -V 0.000000 -T 0.000000
n -t 31.000000 -s 8 -x 34.498513 -y 11.502905 -U 0.000000 -V 0.000000 -T 0.000000
n -t 31.000000 -s 5 -x 32.481168 -y 37.674091 -U 0.000000 -V 0.000000 -T 0.000000
n -t 31.000000 -s 9 -x 24.195753 -y 52.570652 -U 0.000000 -V 0.000000 -T 0.000000
n -t 31.000000 -s 7 -x 29.512247 -y 58.981294 -U 0.000000 -V 0.000000 -T 0.000000
n -t 31.000000 -s 2 -x 38.743671 -y 15.005979 -U 0.358835 -V 0.933401 -T 7.937531
n -t 31.000000 -s 8 -x 34.498513 -y 11.502905 -U 0.988628 -V -0.150381 -T 21.479827
n -t 31.000000 -s 5 -x 32.481168 -y 37.674091 -U 0.836056 -V -0.548644 -T 27.812609
n -t 31.000000 -s 9 -x 24.195753 -y 52.570652 -U 0.365533 -V -0.930798 -T 47.591303
n -t 31.000000 -s 7 -x 29.512247 -y 58.981294 -U 0.759995 -V -0.649929 -T 34.502646
n -t 31.000000 -s 2 -x 38.743671 -y 15.005979 -U 0.358835 -V 0.933401 -T 2.937531
n -t 31.000000 -s 8 -x 34.498513 -y 11.502905 -U 0.000000 -V 0.000000 -T 0.000000
n -t 31.000000 -s 5 -x 32.481168 -y 37.674091 -U 0.000000 -V 0.000000 -T 0.000000
n -t 31.000000 -s 9 -x 24.195753 -y 52.570652 -U 0.000000 -V 0.000000 -T 0.000000
n -t 31.000000 -s 7 -x 29.512247 -y 58.981294 -U 0.000000 -V 0.000000 -T 0.000000
n -t 32.000000 -s 2 -x 39.102506 -y 15.939380 -U 0.648894 -V 0.760879 -T 0.856434
n -t 32.000000 -s 8 -x 34.498513 -y 11.502905 -U 0.000000 -V 0.000000 -T 0.000000
n -t 32.000000 -s 5 -x 32.481168 -y 37.674091 -U 0.000000 -V 0.000000 -T 0.000000
n -t 32.000000 -s 9 -x 24.195753 -y 52.570652 -U 0.000000 -V 0.000000 -T 0.000000
n -t 32.000000 -s 7 -x 29.512247 -y 58.981294 -U 0.000000 -V 0.000000 -T 0.000000
n -t 33.000000 -s 8 -x 34.498513 -y 11.502905 -U 0.000000 -V 0.000000 -T 0.000000
n -t 33.000000 -s 5 -x 32.481168 -y 37.674091 -U 0.000000 -V 0.000000 -T 0.000000
n -t 33.000000 -s 9 -x 24.195753 -y 52.570652 -U 0.000000 -V 0.000000 -T 0.000000
n -t 33.000000 -s 7 -x 29.512247 -y 58.981294 -U 0.000000 -V 0.000000 -T 0.000000
n -t 34.000000 -s 2 -x 39.658241 -y 16.591022 -U 0.999202 -V -0.039949 -T 0.870706
n -t 34.000000 -s 8 -x 34.498513 -y 11.502905 -U 0.000000 -V 0.000000 -T 0.000000
n -t 34.000000 -s 5 -x 32.481168 -y 37.674091 -U 0.000000 -V 0.000000 -T 0.000000
n -t 34.000000 -s 9 -x 24.195753 -y 52.570652 -U 0.000000 -V 0.000000 -T 0.000000
n -t 34.000000 -s 7 -x 29.512247 -y 58.981294 -U 0.000000 -V 0.000000 -T 0.000000
n -t 35.000000 -s 2 -x 40.528252 -y 16.556238 -U 0.000000 -V 0.000000 -T 0.000000
n -t 35.000000 -s 8 -x 34.498513 -y 11.502905 -U 0.000000 -V 0.000000 -T 0.000000
n -t 35.000000 -s 5 -x 32.481168 -y 37.674091 -U 0.000000 -V 0.000000 -T 0.000000
n -t 35.000000 -s 9 -x 24.195753 -y 52.570652 -U 0.000000 -V 0.000000 -T 0.000000
n -t 35.000000 -s 7 -x 29.512247 -y 58.981294 -U 0.000000 -V 0.000000 -T 0.000000
n -t 35.000000 -s 2 -x 40.528252 -y 16.556238 -U 0.943305 -V -0.331927 -T 6.685835
n -t 35.000000 -s 8 -x 34.498513 -y 11.502905 -U 0.919647 -V -0.392746 -T 28.792193
n -t 35.000000 -s 5 -x 32.481168 -y 37.674091 -U 0.773662 -V -0.633598 -T 36.832602
n -t 35.000000 -s 2 -x 40.528252 -y 16.556238 -U 0.943305 -V -0.331927 -T 1.685835
n -t 35.000000 -s 8 -x 34.498513 -y 11.502905 -U 0.000000 -V 0.000000 -T 0.000000
n -t 35.000000 -s 5 -x 32.481168 -y 37.674091 -U 0.000000 -V 0.000000 -T 0.000000
n -t 36.000000 -s 2 -x 41.471557 -y 16.224311 -U 0.863022 -V -0.505166 -T 2.733581
n -t 36.000000 -s 8 -x 34.498513 -y 11.502905 -U 0.000000 -V 0.000000 -T 0.000000
n -t 36.000000 -s 5 -x 32.481168 -y 37.674091 -U 0.000000 -V 0.000000 -T 0.000000
n -t 37.000000 -s 2 -x 42.334580 -y 15.719145 -U 0.795714 -V -0.605672 -T 3.950452
n -t 37.000000 -s 8 -x 34.498513 -y 11.502905 -U 0.000000 -V 0.000000 -T 0.000000
n -t 37.000000 -s 5 -x 32.481168 -y 37.674091 -U 0.000000 -V 0.000000 -T 0.000000
n -t 38.000000 -s 2 -x 43.130294 -y 15.113473 -U 0.745161 -V -0.666885 -T 5.248884
n -t 39.000000 -s 2 -x 43.875454 -y 14.446588 -U 0.000000 -V 0.000000 -T 0.000000
n -t 39.000000 -s 8 -x 34.498513 -y 11.502905 -U 0.000000 -V 0.000000 -T 0.000000
n -t 39.000000 -s 5 -x 32.481168 -y 37.674091 -U 0.000000 -V 0.000000 -T 0.000000
n -t 39.000000 -s 2 -x 43.875454 -y 14.446588 -U 0.707765 -V -0.706448 -T 11.589543
n -t 39.000000 -s 8 -x 34.498513 -y 11.502905 -U 0.940100 -V -0.340898 -T 33.742948
n -t 39.000000 -s 5 -x 32.481168 -y 37.674091 -U 0.731865 -V -0.681449 -T 46.100144
n -t 39.000000 -s 2 -x 43.875454 -y 14.446588 -U 0.707765 -V -0.706448 -T 6.589543
n -t 40.000000 -s 2 -x 44.583220 -y 13.740141 -U 0.000000 -V 0.000000 -T 0.000000
n -t 40.000000 -s 8 -x 35.438614 -y 11.162007 -U 0.000000 -V 0.000000 -T 0.000000
n -t 40.000000 -s 5 -x 33.213033 -y 36.992642 -U 0.000000 -V 0.000000 -T 0.000000
n -t 40.000000 -s 2 -x 44.583220 -y 13.740141 -U 0.679782 -V -0.733414 -T 12.953690
n -t 40.000000 -s 8 -x 35.438614 -y 11.162007 -U 0.944502 -V -0.328505 -T 33.978145
n -t 40.000000 -s 5 -x 33.213033 -y 36.992642 -U 0.723410 -V -0.690419 -T 47.439219
n -t 40.000000 -s 2 -x 44.583220 -y 13.740141 -U 0.679782 -V -0.733414 -T 7.953690