n -t * -s 0  -x 99.556160000000006 -y 97.035849999999996 -Z 0 -z 1  -v circle -c black
n -t * -s 1  -x 23.120190000000001 -y 6.650601 -Z 0 -z 1  -v circle -c black
n -t * -s 2  -x 99.958250000000007 -y 33.652670000000001 -Z 0 -z 1  -v circle -c black
n -t * -s 3  -x 55.951889999999999 -y 6.9362950000000003 -Z 0 -z 1  -v circle -c black
n -t * -s 4  -x 69.519620000000003 -y 76.627520000000004 -Z 0 -z 1  -v circle -c black
n -t * -s 5  -x 47.262419999999999 -y 34.913609999999998 -Z 0 -z 1  -v circle -c black
n -t * -s 6  -x 50.956000000000003 -y 42.757739999999998 -Z 0 -z 1  -v circle -c black
n -t * -s 7  -x 2.8754390000000001 -y 41.392679999999999 -Z 0 -z 1  -v circle -c black
n -t * -s 8  -x 10.77969 -y 87.721959999999996 -Z 0 -z 1  -v circle -c black
n -t * -s 9  -x 25.61843 -y 87.916460000000001 -Z 0 -z 1  -v circle -c black
n -t * -s 10  -x 97.749520000000004 -y 81.545529999999999 -Z 0 -z 2  -v circle -c black
n -t * -s 11  -x 56.653930000000003 -y 29.677869999999999 -Z 0 -z 2  -v circle -c black
n -t * -s 12  -x 18.126439999999999 -y 81.269350000000003 -Z 0 -z 2  -v circle -c black
V -t * -v 1.0a5 -a 0
W -t * -x 100 -y 100
A -t * -n 1 -p 0 -o 0x7fffffff -c 30 -a 1
A -t * -h 1 -m 1073741823 -s 0
n -t 0 -s 10 -S COLOR -c red -o black -i red -I black
n -t 0 -s 11 -S COLOR -c red -o black -i red -I black
n -t 0 -s 12 -S COLOR -c red -o black -i red -I black
n -t 0.000000 -s 10 -x 97.749520 -y 81.545530 -U -1.778754 -V -1.643351 -T 8.010277
n -t 0.000000 -s 11 -x 56.653930 -y 29.677870 -U 0.375780 -V -0.699373 -T 31.766485
n -t 0.000000 -s 12 -x 18.126440 -y 81.269350 -U 2.094634 -V 0.916362 -T 14.399816
n -t 0.000000 -s 8 -x 10.779690 -y 87.721960 -U 0.751349 -V -0.659905 -T 9.778083
n -t 0.000000 -s 5 -x 47.262420 -y 34.913610 -U 0.873436 -V -0.486938 -T 10.752369
n -t 0.000000 -s 0 -x 99.556160 -y 97.035850 -U -0.115845 -V -0.993267 -T 15.595319
n -t 0.000000 -s 9 -x 25.618430 -y 87.916460 -U 0.663689 -V 0.748009 -T 10.019972
n -t 0.000000 -s 6 -x 50.956000 -y 42.757740 -U 0.588992 -V -0.808139 -T 33.684801
n -t 0.000000 -s 4 -x 69.519620 -y 76.627520 -U 0.836619 -V -0.547786 -T 16.838931
n -t 0.000000 -s 3 -x 55.951890 -y 6.936295 -U 0.546596 -V 0.837396 -T 27.157481
n -t 0.000000 -s 1 -x 23.120190 -y 6.650601 -U 0.966644 -V 0.256123 -T 34.690882
n -t 0.000000 -s 0 -x 99.556160 -y 97.035850 -U -0.115845 -V -0.993267 -T 10.595319
n -t 0.000000 -s 5 -x 47.262420 -y 34.913610 -U 0.873436 -V -0.486938 -T 5.752369
n -t 0.000000 -s 8 -x 10.779690 -y 87.721960 -U 0.751349 -V -0.659905 -T 4.778083
n -t 0.000000 -s 9 -x 25.618430 -y 87.916460 -U 0.000000 -V 0.000000 -T 0.000000
n -t 1.000000 -s 0 -x 99.440315 -y 96.042583 -U 0.000000 -V 0.000000 -T 0.000000
n -t 1.000000 -s 4 -x 70.356239 -y 76.079734 -U 0.000000 -V 0.000000 -T 0.000000
n -t 1.000000 -s 5 -x 48.135856 -y 34.426672 -U 0.000000 -V 0.000000 -T 0.000000
n -t 1.000000 -s 6 -x 51.544992 -y 41.949601 -U 0.000000 -V 0.000000 -T 0.000000
n -t 1.000000 -s 3 -x 56.498486 -y 7.773691 -U 0.000000 -V 0.000000 -T 0.000000
n -t 1.000000 -s 1 -x 24.086834 -y 6.906724 -U 0.000000 -V 0.000000 -T 0.000000
n -t 1.000000 -s 8 -x 11.531039 -y 87.062055 -U 0.000000 -V 0.000000 -T 0.000000
n -t 1.000000 -s 9 -x 25.618430 -y 87.916460 -U 0.000000 -V 0.000000 -T 0.000000
n -t 1.000000 -s 9 -x 25.618430 -y 87.916460 -U -0.748026 -V -0.663670 -T 10.015687
n -t 1.000000 -s 5 -x 48.135856 -y 34.426672 -U 0.852725 -V -0.522360 -T 10.429921
n -t 1.000000 -s 0 -x 99.440315 -y 96.042583 -U -0.210160 -V -0.977667 -T 16.509101
n -t 1.000000 -s 8 -x 11.531039 -y 87.062055 -U 0.927635 -V 0.373488 -T 22.355278
n -t 1.000000 -s 6 -x 51.544992 -y 41.949601 -U 0.586375 -V -0.810040 -T 33.471498
n -t 1.000000 -s 4 -x 70.356239 -y 76.079734 -U 0.743470 -V -0.668769 -T 15.430872
n -t 1.000000 -s 3 -x 56.498486 -y 7.773691 -U 0.569029 -V 0.822317 -T 25.786649
n -t 1.000000 -s 1 -x 24.086834 -y 6.906724 -U 0.972231 -V 0.234024 -T 33.883805
n -t 1.000000 -s 0 -x 99.440315 -y 96.042583 -U -0.210160 -V -0.977667 -T 11.509101
n -t 1.000000 -s 5 -x 48.135856 -y 34.426672 -U 0.852725 -V -0.522360 -T 5.429921
n -t 1.000000 -s 9 -x 25.618430 -y 87.916460 -U -0.685615 -V -0.727965 -T 2.872289
n -t 1.000000 -s 8 -x 11.531039 -y 87.062055 -U 0.000000 -V 0.000000 -T 0.000000
n -t 2.000000 -s 0 -x 99.230155 -y 95.064916 -U 0.000000 -V 0.000000 -T 0.000000
n -t 2.000000 -s 4 -x 71.099709 -y 75.410965 -U 0.000000 -V 0.000000 -T 0.000000
n -t 2.000000 -s 5 -x 48.988581 -y 33.904312 -U 0.000000 -V 0.000000 -T 0.000000
n -t 2.000000 -s 6 -x 52.131367 -y 41.139561 -U 0.000000 -V 0.000000 -T 0.000000
n -t 2.000000 -s 3 -x 57.067516 -y 8.596009 -U 0.000000 -V 0.000000 -T 0.000000
n -t 2.000000 -s 1 -x 25.059065 -y 7.140748 -U 0.000000 -V 0.000000 -T 0.000000
n -t 2.000000 -s 9 -x 24.932815 -y 87.188495 -U 0.000000 -V 0.000000 -T 0.000000
n -t 2.000000 -s 8 -x 11.531039 -y 87.062055 -U 0.000000 -V 0.000000 -T 0.000000
n -t 2.000000 -s 9 -x 24.932815 -y 87.188495 -U -0.754575 -V -0.656214 -T 9.020146
n -t 2.000000 -s 5 -x 48.988581 -y 33.904312 -U 0.831415 -V -0.555651 -T 10.123591
n -t 2.000000 -s 0 -x 99.230155 -y 95.064916 -U -0.287155 -V -0.957884 -T 17.545013
n -t 2.000000 -s 8 -x 11.531039 -y 87.062055 -U 0.927635 -V 0.373488 -T 22.355278
n -t 2.000000 -s 6 -x 52.131367 -y 41.139561 -U 0.583798 -V -0.811899 -T 33.258534
n -t 2.000000 -s 4 -x 71.099709 -y 75.410965 -U 0.621081 -V -0.783746 -T 14.410625
n -t 2.000000 -s 3 -x 57.067516 -y 8.596009 -U 0.592583 -V 0.805510 -T 24.435602
n -t 2.000000 -s 1 -x 25.059065 -y 7.140748 -U 0.977399 -V 0.211403 -T 33.094390
n -t 2.000000 -s 0 -x 99.230155 -y 95.064916 -U -0.287155 -V -0.957884 -T 12.545013
n -t 2.000000 -s 5 -x 48.988581 -y 33.904312 -U 0.831415 -V -0.555651 -T 5.123591
n -t 2.000000 -s 8 -x 11.531039 -y 87.062055 -U 0.000000 -V 0.000000 -T 0.000000
n -t 3.000000 -s 0 -x 98.943000 -y 94.107032 -U 0.000000 -V 0.000000 -T 0.000000
n -t 3.000000 -s 4 -x 71.720790 -y 74.627219 -U 0.000000 -V 0.000000 -T 0.000000
n -t 3.000000 -s 5 -x 49.819997 -y 33.348660 -U 0.000000 -V 0.000000 -T 0.000000
n -t 3.000000 -s 6 -x 52.715165 -y 40.327662 -U 0.000000 -V 0.000000 -T 0.000000
n -t 3.000000 -s 3 -x 57.660098 -y 9.401518 -U 0.000000 -V 0.000000 -T 0.000000
n -t 3.000000 -s 1 -x 26.036464 -y 7.352151 -U 0.000000 -V 0.000000 -T 0.000000
n -t 3.000000 -s 9 -x 24.178240 -y 86.532281 -U 0.000000 -V 0.000000 -T 0.000000
n -t 3.000000 -s 8 -x 11.531039 -y 87.062055 -U 0.000000 -V 0.000000 -T 0.000000
n -t 3.000000 -s 9 -x 24.178240 -y 86.532281 -U -0.754575 -V -0.656214 -T 8.020146
n -t 3.000000 -s 5 -x 49.819997 -y 33.348660 -U 0.809756 -V -0.586767 -T 9.831693
n -t 3.000000 -s 0 -x 98.943000 -y 94.107032 -U -0.349733 -V -0.936849 -T 18.670619
n -t 3.000000 -s 8 -x 11.531039 -y 87.062055 -U 0.927635 -V 0.373488 -T 22.355278
n -t 3.000000 -s 6 -x 52.715165 -y 40.327662 -U 0.581260 -V -0.813718 -T 33.045895
n -t 3.000000 -s 4 -x 71.720790 -y 74.627219 -U 0.474433 -V -0.880292 -T 13.806652
n -t 3.000000 -s 3 -x 57.660098 -y 9.401518 -U 0.617297 -V 0.786730 -T 23.106063
n -t 3.000000 -s 1 -x 26.036464 -y 7.352151 -U 0.982117 -V 0.188271 -T 32.322835
n -t 3.000000 -s 0 -x 98.943000 -y 94.107032 -U -0.349733 -V -0.936849 -T 13.670619
n -t 3.000000 -s 5 -x 49.819997 -y 33.348660 -U 0.809756 -V -0.586767 -T 4.831693
n -t 3.000000 -s 6 -x 52.715165 -y 40.327662 -U 0.000000 -V 0.000000 -T 0.000000
n -t 3.000000 -s 3 -x 57.660098 -y 9.401518 -U 0.000000 -V 0.000000 -T 0.000000
n -t 3.000000 -s 1 -x 26.036464 -y 7.352151 -U 0.000000 -V 0.000000 -T 0.000000
n -t 3.000000 -s 8 -x 11.531039 -y 87.062055 -U 0.000000 -V 0.000000 -T 0.000000
n -t 4.000000 -s 0 -x 98.593266 -y 93.170182 -U 0.000000 -V 0.000000 -T 0.000000
n -t 4.000000 -s 4 -x 72.195223 -y 73.746927 -U 0.000000 -V 0.000000 -T 0.000000
n -t 4.000000 -s 5 -x 50.629753 -y 32.761894 -U 0.000000 -V 0.000000 -T 0.000000
n -t 4.000000 -s 6 -x 52.715165 -y 40.327662 -U 0.000000 -V 0.000000 -T 0.000000
n -t 4.000000 -s 3 -x 57.660098 -y 9.401518 -U 0.000000 -V 0.000000 -T 0.000000
n -t 4.000000 -s 1 -x 26.036464 -y 7.352151 -U 0.000000 -V 0.000000 -T 0.000000
n -t 4.000000 -s 9 -x 23.423666 -y 85.876067 -U 0.000000 -V 0.000000 -T 0.000000
n -t 4.000000 -s 8 -x 11.531039 -y 87.062055 -U 0.000000 -V 0.000000 -T 0.000000
n -t 4.000000 -s 9 -x 23.423666 -y 85.876067 -U 0.956372 -V -0.292150 -T 3.221871
n -t 4.000000 -s 5 -x 50.629753 -y 32.761894 -U 0.809756 -V -0.586767 -T 8.831693
n -t 4.000000 -s 4 -x 72.195223 -y 73.746927 -U 0.997800 -V 0.066299 -T 18.479942
n -t 4.000000 -s 6 -x 52.715165 -y 40.327662 -U 0.581260 -V -0.813718 -T 33.045895
n -t 4.000000 -s 8 -x 11.531039 -y 87.062055 -U 0.924388 -V 0.381453 -T 31.497665
n -t 4.000000 -s 0 -x 98.593266 -y 93.170182 -U -0.564221 -V -0.825624 -T 39.170623
n -t 4.000000 -s 3 -x 57.660098 -y 9.401518 -U 0.617297 -V 0.786730 -T 23.106063
n -t 4.000000 -s 1 -x 26.036464 -y 7.352151 -U 0.982117 -V 0.188271 -T 32.322835
n -t 4.000000 -s 2 -x 99.958250 -y 33.652670 -U -0.324505 -V 0.945884 -T 28.732193
n -t 4.000000 -s 4 -x 72.195223 -y 73.746927 -U 0.997800 -V 0.066299 -T 13.479942
n -t 4.000000 -s 5 -x 50.629753 -y 32.761894 -U 0.787983 -V -0.615697 -T 4.552614
n -t 4.000000 -s 6 -x 52.715165 -y 40.327662 -U 0.000000 -V 0.000000 -T 0.000000
n -t 4.000000 -s 3 -x 57.660098 -y 9.401518 -U 0.000000 -V 0.000000 -T 0.000000
n -t 4.000000 -s 1 -x 26.036464 -y 7.352151 -U 0.000000 -V 0.000000 -T 0.000000
n -t 4.000000 -s 8 -x 11.531039 -y 87.062055 -U 0.000000 -V 0.000000 -T 0.000000
n -t 5.000000 -s 4 -x 73.193023 -y 73.813226 -U 0.000000 -V 0.000000 -T 0.000000
n -t 5.000000 -s 0 -x 98.029045 -y 92.344559 -U 0.000000 -V 0.000000 -T 0.000000
n -t 5.000000 -s 2 -x 99.633745 -y 34.598554 -U 0.000000 -V 0.000000 -T 0.000000
n -t 5.000000 -s 5 -x 51.417736 -y 32.146197 -U 0.000000 -V 0.000000 -T 0.000000
n -t 5.000000 -s 6 -x 52.715165 -y 40.327662 -U 0.000000 -V 0.000000 -T 0.000000
n -t 5.000000 -s 3 -x 57.660098 -y 9.401518 -U 0.000000 -V 0.000000 -T 0.000000
n -t 5.000000 -s 1 -x 26.036464 -y 7.352151 -U 0.000000 -V 0.000000 -T 0.000000
n -t 5.000000 -s 9 -x 24.380038 -y 85.583917 -U 0.000000 -V 0.000000 -T 0.000000
n -t 5.000000 -s 8 -x 11.531039 -y 87.062055 -U 0.000000 -V 0.000000 -T 0.000000
n -t 5.000000 -s 9 -x 24.380038 -y 85.583917 -U 0.956372 -V -0.292150 -T 2.221871
n -t 5.000000 -s 5 -x 51.417736 -y 32.146197 -U 0.812460 -V -0.583018 -T 7.832433
n -t 5.000000 -s 4 -x 73.193023 -y 73.813226 -U 0.999522 -V -0.030916 -T 15.670219
n -t 5.000000 -s 6 -x 52.715165 -y 40.327662 -U 0.581260 -V -0.813718 -T 33.045895
n -t 5.000000 -s 8 -x 11.531039 -y 87.062055 -U 0.924388 -V 0.381453 -T 31.497665
n -t 5.000000 -s 0 -x 98.029045 -y 92.344559 -U -0.575198 -V -0.818014 -T 40.534639
n -t 5.000000 -s 3 -x 57.660098 -y 9.401518 -U 0.617297 -V 0.786730 -T 23.106063
n -t 5.000000 -s 1 -x 26.036464 -y 7.352151 -U 0.982117 -V 0.188271 -T 32.322835
n -t 5.000000 -s 2 -x 99.633745 -y 34.598554 -U -0.401466 -V 0.915874 -T 26.846583
n -t 5.000000 -s 4 -x 73.193023 -y 73.813226 -U 0.999522 -V -0.030916 -T 10.670219
n -t 5.000000 -s 5 -x 51.417736 -y 32.146197 -U 0.766314 -V -0.642466 -T 4.284831
n -t 5.000000 -s 6 -x 52.715165 -y 40.327662 -U 0.000000 -V 0.000000 -T 0.000000
n -t 5.000000 -s 3 -x 57.660098 -y 9.401518 -U 0.000000 -V 0.000000 -T 0.000000
n -t 5.000000 -s 1 -x 26.036464 -y 7.352151 -U 0.000000 -V 0.000000 -T 0.000000
n -t 5.000000 -s 8 -x 11.531039 -y 87.062055 -U 0.000000 -V 0.000000 -T 0.000000
n -t 6.000000 -s 4 -x 74.192545 -y 73.782311 -U 0.000000 -V 0.000000 -T 0.000000
n -t 6.000000 -s 0 -x 97.453848 -y 91.526544 -U 0.000000 -V 0.000000 -T 0.000000
n -t 6.000000 -s 2 -x 99.232279 -y 35.514428 -U 0.000000 -V 0.000000 -T 0.000000
n -t 6.000000 -s 5 -x 52.184050 -y 31.503730 -U 0.000000 -V 0.000000 -T 0.000000
n -t 6.000000 -s 6 -x 52.715165 -y 40.327662 -U 0.000000 -V 0.000000 -T 0.000000
n -t 6.000000 -s 3 -x 57.660098 -y 9.401518 -U 0.000000 -V 0.000000 -T 0.000000
n -t 6.000000 -s 1 -x 26.036464 -y 7.352151 -U 0.000000 -V 0.000000 -T 0.000000
n -t 6.000000 -s 9 -x 25.336410 -y 85.291767 -U 0.000000 -V 0.000000 -T 0.000000
n -t 6.000000 -s 8 -x 11.531039 -y 87.062055 -U 0.000000 -V 0.000000 -T 0.000000
n -t 6.000000 -s 9 -x 25.336410 -y 85.291767 -U 0.956372 -V -0.292150 -T 1.221871
n -t 6.000000 -s 5 -x 52.184050 -y 31.503730 -U 0.818825 -V -0.574044 -T 6.835678
n -t 6.000000 -s 4 -x 74.192545 -y 73.782311 -U 0.987014 -V -0.160632 -T 13.053968
n -t 6.000000 -s 6 -x 52.715165 -y 40.327662 -U 0.581260 -V -0.813718 -T 33.045895
n -t 6.000000 -s 8 -x 11.531039 -y 87.062055 -U 0.924388 -V 0.381453 -T 31.497665
n -t 6.000000 -s 0 -x 97.453848 -y 91.526544 -U -0.585107 -V -0.810956 -T 41.905160
n -t 6.000000 -s 3 -x 57.660098 -y 9.401518 -U 0.617297 -V 0.786730 -T 23.106063
n -t 6.000000 -s 1 -x 26.036464 -y 7.352151 -U 0.982117 -V 0.188271 -T 32.322835
n -t 6.000000 -s 2 -x 99.232279 -y 35.514428 -U -0.483121 -V 0.875554 -T 25.159918
n -t 6.000000 -s 4 -x 74.192545 -y 73.782311 -U 0.987014 -V -0.160632 -T 8.053968
n -t 6.000000 -s 5 -x 52.184050 -y 31.503730 -U 0.744945 -V -0.667126 -T 4.026926
n -t 6.000000 -s 6 -x 52.715165 -y 40.327662 -U 0.000000 -V 0.000000 -T 0.000000
n -t 6.000000 -s 3 -x 57.660098 -y 9.401518 -U 0.000000 -V 0.000000 -T 0.000000
n -t 6.000000 -s 1 -x 26.036464 -y 7.352151 -U 0.000000 -V 0.000000 -T 0.000000
n -t 6.000000 -s 9 -x 25.336410 -y 85.291767 -U 0.964097 -V 0.265550 -T 0.557356
n -t 6.000000 -s 8 -x 11.531039 -y 87.062055 -U 0.000000 -V 0.000000 -T 0.000000
n -t 7.000000 -s 4 -x 75.179559 -y 73.621678 -U 0.000000 -V 0.000000 -T 0.000000
n -t 7.000000 -s 0 -x 96.868741 -y 90.715588 -U 0.000000 -V 0.000000 -T 0.000000
n -t 7.000000 -s 2 -x 98.749158 -y 36.389981 -U 0.000000 -V 0.000000 -T 0.000000
n -t 7.000000 -s 5 -x 52.928995 -y 30.836604 -U 0.000000 -V 0.000000 -T 0.000000
n -t 7.000000 -s 6 -x 52.715165 -y 40.327662 -U 0.000000 -V 0.000000 -T 0.000000
n -t 7.000000 -s 3 -x 57.660098 -y 9.401518 -U 0.000000 -V 0.000000 -T 0.000000
n -t 7.000000 -s 1 -x 26.036464 -y 7.352151 -U 0.000000 -V 0.000000 -T 0.000000
n -t 7.000000 -s 9 -x 25.873756 -y 85.439772 -U 0.000000 -V 0.000000 -T 0.000000
n -t 7.000000 -s 8 -x 11.531039 -y 87.062055 -U 0.000000 -V 0.000000 -T 0.000000
n -t 7.000000 -s 9 -x 25.873756 -y 85.439772 -U 0.780868 -V -0.624696 -T 0.808355
n -t 7.000000 -s 5 -x 52.928995 -y 30.836604 -U 0.830309 -V -0.557304 -T 5.843944
n -t 7.000000 -s 4 -x 75.179559 -y 73.621678 -U 0.942747 -V -0.333508 -T 10.733191
n -t 7.000000 -s 3 -x 57.660098 -y 9.401518 -U 0.962218 -V 0.272279 -T 14.823362
n -t 7.000000 -s 8 -x 11.531039 -y 87.062055 -U 0.924388 -V 0.381453 -T 31.497665
n -t 7.000000 -s 0 -x 96.868741 -y 90.715588 -U -0.594082 -V -0.804404 -T 43.281279
n -t 7.000000 -s 6 -x 52.715165 -y 40.327662 -U 0.833201 -V -0.552970 -T 23.053542
n -t 7.000000 -s 2 -x 98.749158 -y 36.389981 -U -0.567612 -V 0.823296 -T 23.697370
n -t 7.000000 -s 1 -x 26.036464 -y 7.352151 -U 0.982117 -V 0.188271 -T 32.322835
n -t 7.000000 -s 4 -x 75.179559 -y 73.621678 -U 0.942747 -V -0.333508 -T 5.733191
n -t 7.000000 -s 5 -x 52.928995 -y 30.836604 -U 0.724048 -V -0.689750 -T 3.777594
n -t 7.000000 -s 3 -x 57.660098 -y 9.401518 -U 0.000000 -V 0.000000 -T 0.000000
n -t 7.000000 -s 6 -x 52.715165 -y 40.327662 -U 0.000000 -V 0.000000 -T 0.000000
n -t 7.000000 -s 1 -x 26.036464 -y 7.352151 -U 0.000000 -V 0.000000 -T 0.000000
n -t 7.000000 -s 9 -x 25.873756 -y 85.439772 -U 0.951168 -V 0.308675 -T 2.270138
n -t 7.000000 -s 8 -x 11.531039 -y 87.062055 -U 0.000000 -V 0.000000 -T 0.000000
n -t 8.000000 -s 4 -x 76.122306 -y 73.288170 -U 0.000000 -V 0.000000 -T 0.000000
n -t 8.000000 -s 0 -x 96.274659 -y 89.911183 -U 0.000000 -V 0.000000 -T 0.000000
n -t 8.000000 -s 2 -x 98.181546 -y 37.213278 -U 0.000000 -V 0.000000 -T 0.000000
n -t 8.000000 -s 5 -x 53.653042 -y 30.146855 -U 0.000000 -V 0.000000 -T 0.000000
n -t 8.000000 -s 3 -x 57.660098 -y 9.401518 -U 0.000000 -V 0.000000 -T 0.000000
n -t 8.000000 -s 6 -x 52.715165 -y 40.327662 -U 0.000000 -V 0.000000 -T 0.000000
n -t 8.000000 -s 1 -x 26.036464 -y 7.352151 -U 0.000000 -V 0.000000 -T 0.000000
n -t 8.000000 -s 9 -x 26.824923 -y 85.748447 -U 0.000000 -V 0.000000 -T 0.000000
n -t 8.000000 -s 8 -x 11.531039 -y 87.062055 -U 0.000000 -V 0.000000 -T 0.000000
n -t 8.000000 -s 5 -x 53.653042 -y 30.146855 -U 0.849202 -V -0.528069 -T 4.861305
n -t 8.000000 -s 9 -x 26.824923 -y 85.748447 -U 0.942711 -V 0.333609 -T 8.548307
n -t 8.000000 -s 4 -x 76.122306 -y 73.288170 -U 0.834230 -V -0.551416 -T 8.867078
n -t 8.000000 -s 3 -x 57.660098 -y 9.401518 -U 0.962218 -V 0.272279 -T 14.823362
n -t 8.000000 -s 8 -x 11.531039 -y 87.062055 -U 0.945305 -V 0.326188 -T 39.664038
n -t 8.000000 -s 0 -x 96.274659 -y 89.911183 -U -0.602238 -V -0.798316 -T 44.662237
n -t 8.000000 -s 6 -x 52.715165 -y 40.327662 -U 0.833201 -V -0.552970 -T 23.053542
n -t 8.000000 -s 2 -x 98.181546 -y 37.213278 -U -0.652162 -V 0.758079 -T 22.482218
n -t 8.000000 -s 1 -x 26.036464 -y 7.352151 -U 0.982117 -V 0.188271 -T 32.322835
n -t 8.000000 -s 4 -x 76.122306 -y 73.288170 -U 0.834230 -V -0.551416 -T 3.867078
n -t 8.000000 -s 0 -x 96.274659 -y 89.911183 -U 0.000000 -V 0.000000 -T 0.000000
n -t 8.000000 -s 2 -x 98.181546 -y 37.213278 -U 0.000000 -V 0.000000 -T 0.000000
n -t 8.000000 -s 5 -x 53.653042 -y 30.146855 -U 0.703770 -V -0.710428 -T 3.535650
n -t 8.000000 -s 3 -x 57.660098 -y 9.401518 -U 0.000000 -V 0.000000 -T 0.000000
n -t 8.000000 -s 6 -x 52.715165 -y 40.327662 -U 0.000000 -V 0.000000 -T 0.000000
n -t 8.000000 -s 1 -x 26.036464 -y 7.352151 -U 0.000000 -V 0.000000 -T 0.000000
n -t 8.000000 -s 9 -x 26.824923 -y 85.748447 -U 0.942711 -V 0.333609 -T 3.548307
n -t 8.000000 -s 8 -x 11.531039 -y 87.062055 -U 0.000000 -V 0.000000 -T 0.000000
n -t 9.000000 -s 4 -x 76.956537 -y 72.736754 -U 0.832531 -V -0.553979 -T 2.861177
n -t 9.000000 -s 0 -x 96.274659 -y 89.911183 -U 0.000000 -V 0.000000 -T 0.000000
n -t 9.000000 -s 2 -x 98.181546 -y 37.213278 -U 0.000000 -V 0.000000 -T 0.000000
n -t 9.000000 -s 5 -x 54.356812 -y 29.436426 -U 0.684232 -V -0.729264 -T 3.300023
n -t 9.000000 -s 3 -x 57.660098 -y 9.401518 -U 0.000000 -V 0.000000 -T 0.000000
n -t 9.000000 -s 6 -x 52.715165 -y 40.327662 -U 0.000000 -V 0.000000 -T 0.000000
n -t 9.000000 -s 1 -x 26.036464 -y 7.352151 -U 0.000000 -V 0.000000 -T 0.000000
n -t 9.000000 -s 9 -x 27.767635 -y 86.082057 -U 0.936976 -V 0.349393 -T 4.830035
n -t 9.000000 -s 8 -x 11.531039 -y 87.062055 -U 0.000000 -V 0.000000 -T 0.000000
n -t 10.000000 -s 4 -x 77.789068 -y 72.182775 -U 0.832531 -V -0.553979 -T 1.861177
n -t 10.000000 -s 0 -x 96.274659 -y 89.911183 -U 0.000000 -V 0.000000 -T 0.000000
n -t 10.000000 -s 2 -x 98.181546 -y 37.213278 -U 0.000000 -V 0.000000 -T 0.000000
n -t 10.000000 -s 5 -x 55.041044 -y 28.707162 -U 0.665532 -V -0.746369 -T 3.069763
n -t 10.000000 -s 3 -x 57.660098 -y 9.401518 -U 0.000000 -V 0.000000 -T 0.000000
n -t 10.000000 -s 6 -x 52.715165 -y 40.327662 -U 0.000000 -V 0.000000 -T 0.000000
n -t 10.000000 -s 1 -x 26.036464 -y 7.352151 -U 0.000000 -V 0.000000 -T 0.000000
n -t 10.000000 -s 9 -x 28.704611 -y 86.431450 -U 0.932930 -V 0.360057 -T 6.113550
n -t 11.000000 -s 4 -x 78.621599 -y 71.628797 -U 0.000000 -V 0.000000 -T 0.000000
n -t 11.000000 -s 0 -x 96.274659 -y 89.911183 -U 0.000000 -V 0.000000 -T 0.000000
n -t 11.000000 -s 2 -x 98.181546 -y 37.213278 -U 0.000000 -V 0.000000 -T 0.000000
n -t 11.000000 -s 5 -x 55.706576 -y 27.960793 -U 0.000000 -V 0.000000 -T 0.000000
n -t 11.000000 -s 3 -x 57.660098 -y 9.401518 -U 0.000000 -V 0.000000 -T 0.000000
n -t 11.000000 -s 6 -x 52.715165 -y 40.327662 -U 0.000000 -V 0.000000 -T 0.000000
n -t 11.000000 -s 1 -x 26.036464 -y 7.352151 -U 0.000000 -V 0.000000 -T 0.000000
n -t 11.000000 -s 9 -x 29.637541 -y 86.791508 -U 0.000000 -V 0.000000 -T 0.000000
n -t 11.000000 -s 8 -x 11.531039 -y 87.062055 -U 0.000000 -V 0.000000 -T 0.000000
n -t 11.000000 -s 4 -x 78.621599 -y 71.628797 -U 0.834808 -V -0.550542 -T 5.867090
n -t 11.000000 -s 5 -x 55.706576 -y 27.960793 -U 0.983549 -V -0.180640 -T 2.109396
n -t 11.000000 -s 9 -x 29.637541 -y 86.791508 -U 0.929974 -V 0.367624 -T 12.398049
n -t 11.000000 -s 3 -x 57.660098 -y 9.401518 -U 0.962218 -V 0.272279 -T 14.823362
n -t 11.000000 -s 0 -x 96.274659 -y 89.911183 -U -0.602238 -V -0.798316 -T 44.662237
n -t 11.000000 -s 8 -x 11.531039 -y 87.062055 -U 0.958998 -V 0.283414 -T 45.650280
n -t 11.000000 -s 6 -x 52.715165 -y 40.327662 -U 0.833201 -V -0.552970 -T 23.053542
n -t 11.000000 -s 2 -x 98.181546 -y 37.213278 -U -0.652162 -V 0.758079 -T 22.482218
n -t 11.000000 -s 1 -x 26.036464 -y 7.352151 -U 0.982117 -V 0.188271 -T 32.322835
n -t 11.000000 -s 4 -x 78.621599 -y 71.628797 -U 0.832531 -V -0.553979 -T 0.861177
n -t 11.000000 -s 0 -x 96.274659 -y 89.911183 -U 0.000000 -V 0.000000 -T 0.000000
n -t 11.000000 -s 2 -x 98.181546 -y 37.213278 -U 0.000000 -V 0.000000 -T 0.000000
n -t 11.000000 -s 5 -x 55.706576 -y 27.960793 -U 0.647746 -V -0.761856 -T 2.844029
n -t 11.000000 -s 3 -x 57.660098 -y 9.401518 -U 0.000000 -V 0.000000 -T 0.000000
n -t 11.000000 -s 6 -x 52.715165 -y 40.327662 -U 0.000000 -V 0.000000 -T 0.000000
n -t 11.000000 -s 1 -x 26.036464 -y 7.352151 -U 0.000000 -V 0.000000 -T 0.000000
n -t 11.000000 -s 9 -x 29.637541 -y 86.791508 -U 0.929974 -V 0.367624 -T 7.398049
n -t 12.000000 -s 10 -x 83.501210 -y 68.381830 -U -2.359218 -V -0.948950 -T 25.898234
n -t 12.000000 -s 4 -x 79.338555 -y 71.151723 -U 0.000000 -V 0.000000 -T 0.000000
n -t 12.000000 -s 0 -x 96.274659 -y 89.911183 -U 0.000000 -V 0.000000 -T 0.000000
n -t 12.000000 -s 2 -x 98.181546 -y 37.213278 -U 0.000000 -V 0.000000 -T 0.000000
n -t 12.000000 -s 5 -x 56.354322 -y 27.198936 -U 0.000000 -V 0.000000 -T 0.000000
n -t 12.000000 -s 3 -x 57.660098 -y 9.401518 -U 0.000000 -V 0.000000 -T 0.000000
n -t 12.000000 -s 6 -x 52.715165 -y 40.327662 -U 0.000000 -V 0.000000 -T 0.000000
n -t 12.000000 -s 1 -x 26.036464 -y 7.352151 -U 0.000000 -V 0.000000 -T 0.000000
n -t 12.000000 -s 9 -x 30.567516 -y 87.159132 -U 0.000000 -V 0.000000 -T 0.000000
n -t 12.000000 -s 8 -x 12.490036 -y 87.345469 -U 0.000000 -V 0.000000 -T 0.000000
n -t 12.000000 -s 4 -x 79.338555 -y 71.151723 -U 0.835198 -V -0.549949 -T 5.005922
n -t 12.000000 -s 5 -x 56.354322 -y 27.198936 -U 0.966185 -V 0.257849 -T 1.476890
n -t 12.000000 -s 9 -x 30.567516 -y 87.159132 -U 0.927750 -V 0.373201 -T 13.683128
n -t 12.000000 -s 3 -x 57.660098 -y 9.401518 -U 0.962218 -V 0.272279 -T 14.823362
n -t 12.000000 -s 0 -x 96.274659 -y 89.911183 -U -0.602238 -V -0.798316 -T 44.662237
n -t 12.000000 -s 8 -x 12.490036 -y 87.345469 -U 0.962526 -V 0.271191 -T 46.662805
n -t 12.000000 -s 6 -x 52.715165 -y 40.327662 -U 0.833201 -V -0.552970 -T 23.053542
n -t 12.000000 -s 2 -x 98.181546 -y 37.213278 -U -0.652162 -V 0.758079 -T 22.482218
n -t 12.000000 -s 1 -x 26.036464 -y 7.352151 -U 0.982117 -V 0.188271 -T 32.322835
n -t 12.000000 -s 0 -x 96.274659 -y 89.911183 -U 0.000000 -V 0.000000 -T 0.000000
n -t 12.000000 -s 2 -x 98.181546 -y 37.213278 -U 0.000000 -V 0.000000 -T 0.000000
n -t 12.000000 -s 5 -x 56.354322 -y 27.198936 -U 0.630926 -V -0.775843 -T 2.622084
n -t 12.000000 -s 3 -x 57.660098 -y 9.401518 -U 0.000000 -V 0.000000 -T 0.000000
n -t 12.000000 -s 6 -x 52.715165 -y 40.327662 -U 0.000000 -V 0.000000 -T 0.000000
n -t 12.000000 -s 1 -x 26.036464 -y 7.352151 -U 0.000000 -V 0.000000 -T 0.000000
n -t 12.000000 -s 9 -x 30.567516 -y 87.159132 -U 0.927750 -V 0.373201 -T 8.683128
n -t 13.000000 -s 4 -x 80.173753 -y 70.601774 -U 0.000000 -V 0.000000 -T 0.000000
n -t 13.000000 -s 0 -x 96.274659 -y 89.911183 -U 0.000000 -V 0.000000 -T 0.000000
n -t 13.000000 -s 2 -x 98.181546 -y 37.213278 -U 0.000000 -V 0.000000 -T 0.000000
n -t 13.000000 -s 5 -x 56.985248 -y 26.423093 -U 0.000000 -V 0.000000 -T 0.000000
n -t 13.000000 -s 3 -x 57.660098 -y 9.401518 -U 0.000000 -V 0.000000 -T 0.000000
n -t 13.000000 -s 6 -x 52.715165 -y 40.327662 -U 0.000000 -V 0.000000 -T 0.000000
n -t 13.000000 -s 1 -x 26.036464 -y 7.352151 -U 0.000000 -V 0.000000 -T 0.000000
n -t 13.000000 -s 9 -x 31.495266 -y 87.532333 -U 0.000000 -V 0.000000 -T 0.000000
n -t 13.000000 -s 8 -x 13.452562 -y 87.616660 -U 0.000000 -V 0.000000 -T 0.000000
n -t 13.000000 -s 4 -x 80.173753 -y 70.601774 -U 0.835198 -V -0.549949 -T 4.005922
n -t 13.000000 -s 5 -x 56.985248 -y 26.423093 -U 0.566925 -V 0.823769 -T 1.404105
n -t 13.000000 -s 9 -x 31.495266 -y 87.532333 -U 0.926035 -V 0.377439 -T 14.968569
n -t 13.000000 -s 3 -x 57.660098 -y 9.401518 -U 0.962218 -V 0.272279 -T 14.823362
n -t 13.000000 -s 0 -x 96.274659 -y 89.911183 -U -0.602238 -V -0.798316 -T 44.662237
n -t 13.000000 -s 8 -x 13.452562 -y 87.616660 -U 0.965688 -V 0.259705 -T 47.682328
n -t 13.000000 -s 6 -x 52.715165 -y 40.327662 -U 0.833201 -V -0.552970 -T 23.053542
n -t 13.000000 -s 2 -x 98.181546 -y 37.213278 -U -0.652162 -V 0.758079 -T 22.482218
n -t 13.000000 -s 1 -x 26.036464 -y 7.352151 -U 0.982117 -V 0.188271 -T 32.322835
n -t 13.000000 -s 0 -x 96.274659 -y 89.911183 -U 0.000000 -V 0.000000 -T 0.000000
n -t 13.000000 -s 2 -x 98.181546 -y 37.213278 -U 0.000000 -V 0.000000 -T 0.000000
n -t 13.000000 -s 5 -x 56.985248 -y 26.423093 -U 0.615108 -V -0.788443 -T 2.403291
n -t 13.000000 -s 3 -x 57.660098 -y 9.401518 -U 0.000000 -V 0.000000 -T 0.000000
n -t 13.000000 -s 6 -x 52.715165 -y 40.327662 -U 0.000000 -V 0.000000 -T 0.000000
n -t 13.000000 -s 1 -x 26.036464 -y 7.352151 -U 0.000000 -V 0.000000 -T 0.000000
n -t 13.000000 -s 9 -x 31.495266 -y 87.532333 -U 0.926035 -V 0.377439 -T 9.968569
n -t 14.000000 -s 4 -x 81.008951 -y 70.051824 -U 0.000000 -V 0.000000 -T 0.000000
n -t 14.000000 -s 0 -x 96.274659 -y 89.911183 -U 0.000000 -V 0.000000 -T 0.000000
n -t 14.000000 -s 2 -x 98.181546 -y 37.213278 -U 0.000000 -V 0.000000 -T 0.000000
n -t 14.000000 -s 5 -x 57.600357 -y 25.634651 -U 0.000000 -V 0.000000 -T 0.000000
n -t 14.000000 -s 3 -x 57.660098 -y 9.401518 -U 0.000000 -V 0.000000 -T 0.000000
n -t 14.000000 -s 6 -x 52.715165 -y 40.327662 -U 0.000000 -V 0.000000 -T 0.000000
n -t 14.000000 -s 1 -x 26.036464 -y 7.352151 -U 0.000000 -V 0.000000 -T 0.000000
n -t 14.000000 -s 9 -x 32.421301 -y 87.909772 -U 0.000000 -V 0.000000 -T 0.000000
n -t 14.000000 -s 8 -x 14.418250 -y 87.876365 -U 0.000000 -V 0.000000 -T 0.000000
n -t 14.000000 -s 4 -x 81.008951 -y 70.051824 -U 0.835198 -V -0.549949 -T 3.005922
n -t 14.000000 -s 5 -x 57.600357 -y 25.634651 -U 0.600311 -V -0.799766 -T 7.187100
n -t 14.000000 -s 9 -x 32.421301 -y 87.909772 -U 0.924682 -V 0.380740 -T 16.254246
n -t 14.000000 -s 3 -x 57.660098 -y 9.401518 -U 0.980809 -V -0.194969 -T 18.756847
n -t 14.000000 -s 0 -x 96.274659 -y 89.911183 -U -0.602238 -V -0.798316 -T 44.662237
n -t 14.000000 -s 8 -x 14.418250 -y 87.876365 -U 0.968528 -V 0.248904 -T 48.708128
n -t 14.000000 -s 6 -x 52.715165 -y 40.327662 -U 0.752306 -V -0.658813 -T 31.027017
n -t 14.000000 -s 2 -x 98.181546 -y 37.213278 -U -0.652162 -V 0.758079 -T 22.482218
n -t 14.000000 -s 1 -x 26.036464 -y 7.352151 -U 0.998998 -V -0.044763 -T 35.914390
n -t 14.000000 -s 0 -x 96.274659 -y 89.911183 -U 0.000000 -V 0.000000 -T 0.000000
n -t 14.000000 -s 2 -x 98.181546 -y 37.213278 -U 0.000000 -V 0.000000 -T 0.000000
n -t 14.000000 -s 5 -x 57.600357 -y 25.634651 -U 0.600311 -V -0.799766 -T 2.187100
n -t 14.000000 -s 3 -x 57.660098 -y 9.401518 -U 0.000000 -V 0.000000 -T 0.000000
n -t 14.000000 -s 6 -x 52.715165 -y 40.327662 -U 0.000000 -V 0.000000 -T 0.000000
n -t 14.000000 -s 1 -x 26.036464 -y 7.352151 -U 0.000000 -V 0.000000 -T 0.000000
n -t 14.000000 -s 9 -x 32.421301 -y 87.909772 -U 0.924682 -V 0.380740 -T 11.254246
n -t 15.000000 -s 4 -x 81.844149 -y 69.501875 -U 0.000000 -V 0.000000 -T 0.000000
n -t 15.000000 -s 0 -x 96.274659 -y 89.911183 -U 0.000000 -V 0.000000 -T 0.000000
n -t 15.000000 -s 2 -x 98.181546 -y 37.213278 -U 0.000000 -V 0.000000 -T 0.000000
n -t 15.000000 -s 5 -x 58.200668 -y 24.834884 -U 0.000000 -V 0.000000 -T 0.000000
n -t 15.000000 -s 3 -x 57.660098 -y 9.401518 -U 0.000000 -V 0.000000 -T 0.000000
n -t 15.000000 -s 6 -x 52.715165 -y 40.327662 -U 0.000000 -V 0.000000 -T 0.000000
n -t 15.000000 -s 1 -x 26.036464 -y 7.352151 -U 0.000000 -V 0.000000 -T 0.000000
n -t 15.000000 -s 9 -x 33.345983 -y 88.290512 -U 0.000000 -V 0.000000 -T 0.000000
n -t 15.000000 -s 8 -x 15.386778 -y 88.125269 -U 0.000000 -V 0.000000 -T 0.000000
n -t 15.000000 -s 4 -x 81.844149 -y 69.501875 -U -0.806987 -V -0.590569 -T 6.717075
n -t 15.000000 -s 5 -x 58.200668 -y 24.834884 -U 0.600311 -V -0.799766 -T 6.187100
n -t 15.000000 -s 9 -x 33.345983 -y 88.290512 -U 0.924212 -V 0.381879 -T 16.168145
n -t 15.000000 -s 3 -x 57.660098 -y 9.401518 -U 0.980809 -V -0.194969 -T 18.756847
n -t 15.000000 -s 0 -x 96.274659 -y 89.911183 -U -0.812654 -V -0.582746 -T 41.829889
n -t 15.000000 -s 8 -x 15.386778 -y 88.125269 -U 0.969589 -V 0.244740 -T 48.519688
n -t 15.000000 -s 6 -x 52.715165 -y 40.327662 -U 0.752306 -V -0.658813 -T 31.027017
n -t 15.000000 -s 2 -x 98.181546 -y 37.213278 -U -0.930080 -V 0.367356 -T 38.598954
n -t 15.000000 -s 1 -x 26.036464 -y 7.352151 -U 0.998998 -V -0.044763 -T 35.914390
n -t 15.000000 -s 4 -x 81.844149 -y 69.501875 -U -0.806987 -V -0.590569 -T 1.717075
n -t 15.000000 -s 0 -x 96.274659 -y 89.911183 -U 0.000000 -V 0.000000 -T 0.000000
n -t 15.000000 -s 2 -x 98.181546 -y 37.213278 -U 0.000000 -V 0.000000 -T 0.000000
n -t 15.000000 -s 5 -x 58.200668 -y 24.834884 -U 0.586540 -V -0.809920 -T 1.973041
n -t 15.000000 -s 3 -x 57.660098 -y 9.401518 -U 0.000000 -V 0.000000 -T 0.000000
n -t 15.000000 -s 6 -x 52.715165 -y 40.327662 -U 0.000000 -V 0.000000 -T 0.000000
n -t 15.000000 -s 1 -x 26.036464 -y 7.352151 -U 0.000000 -V 0.000000 -T 0.000000
n -t 15.000000 -s 9 -x 33.345983 -y 88.290512 -U 0.924212 -V 0.381879 -T 11.168145
n -t 16.000000 -s 4 -x 81.037162 -y 68.911306 -U 0.000000 -V 0.000000 -T 0.000000
n -t 16.000000 -s 0 -x 96.274659 -y 89.911183 -U 0.000000 -V 0.000000 -T 0.000000
n -t 16.000000 -s 2 -x 98.181546 -y 37.213278 -U 0.000000 -V 0.000000 -T 0.000000
n -t 16.000000 -s 5 -x 58.787208 -y 24.024964 -U 0.000000 -V 0.000000 -T 0.000000