n -t * -s 0  -x 59.267490000000002 -y 78.961330000000004 -Z 0 -z 1  -v circle -c black
n -t * -s 1  -x 43.829419999999999 -y 6.0016179999999997 -Z 0 -z 1  -v circle -c black
n -t * -s 2  -x 12.564120000000001 -y 69.319329999999994 -Z 0 -z 1  -v circle -c black
n -t * -s 3  -x 40.840679999999999 -y 62.899520000000003 -Z 0 -z 1  -v circle -c black
n -t * -s 4  -x 62.319690000000001 -y 62.475340000000003 -Z 0 -z 1  -v circle -c black
n -t * -s 5  -x 87.203159999999997 -y 42.146500000000003 -Z 0 -z 1  -v circle -c black
n -t * -s 6  -x 37.720939999999999 -y 93.106949999999998 -Z 0 -z 1  -v circle -c black
n -t * -s 7  -x 41.307659999999998 -y 95.411590000000004 -Z 0 -z 1  -v circle -c black
n -t * -s 8  -x 36.257739999999998 -y 26.012930000000001 -Z 0 -z 1  -v circle -c black
n -t * -s 9  -x 78.336089999999999 -y 64.834350000000001 -Z 0 -z 1  -v circle -c black
n -t * -s 10  -x 23.582190000000001 -y 15.75224 -Z 0 -z 2  -v circle -c black
n -t * -s 11  -x 4.5083019999999996 -y 95.903059999999996 -Z 0 -z 2  -v circle -c black
n -t * -s 12  -x 37.520159999999997 -y 93.315129999999996 -Z 0 -z 2  -v circle -c black
V -t * -v 1.0a5 -a 0
W -t * -x 100 -y 100
A -t * -n 1 -p 0 -o 0x7fffffff -c 30 -a 1
A -t * -h 1 -m 1073741823 -s 0
n -t 0 -s 10 -S COLOR -c red -o black -i red -I black
n -t 0 -s 11 -S COLOR -c red -o black -i red -I black
n -t 0 -s 12 -S COLOR -c red -o black -i red -I black
n -t 0.000000 -s 10 -x 23.582190 -y 15.752240 -U -2.278079 -V 1.536114 -T 9.760452
n -t 0.000000 -s 11 -x 4.508302 -y 95.903060 -U 1.558469 -V -1.981791 -T 27.890576
n -t 0.000000 -s 12 -x 37.520160 -y 93.315130 -U -0.987525 -V -0.405608 -T 16.265911
n -t 0.000000 -s 6 -x 37.720940 -y 93.106950 -U -0.694198 -V 0.719784 -T 0.289226
n -t 0.000000 -s 7 -x 41.307660 -y 95.411590 -U -0.993233 -V -0.116136 -T 18.051786
n -t 0.000000 -s 8 -x 36.257740 -y 26.012930 -U -0.777259 -V -0.629181 -T 16.308014
n -t 0.000000 -s 2 -x 12.564120 -y 69.319330 -U -0.290012 -V 0.957023 -T 27.777525
n -t 0.000000 -s 1 -x 43.829420 -y 6.001618 -U -0.821244 -V 0.570577 -T 41.874722
n -t 0.000000 -s 0 -x 59.267490 -y 78.961330 -U -0.999983 -V 0.005898 -T 35.890090
n -t 0.000000 -s 3 -x 40.840680 -y 62.899520 -U -0.425869 -V 0.904785 -T 41.004755
n -t 0.000000 -s 4 -x 62.319690 -y 62.475340 -U -0.914765 -V 0.403986 -T 47.738217
n -t 0.000000 -s 8 -x 36.257740 -y 26.012930 -U -0.777259 -V -0.629181 -T 11.308014
n -t 0.000000 -s 2 -x 12.564120 -y 69.319330 -U -0.290012 -V 0.957023 -T 22.777525
n -t 0.000000 -s 7 -x 41.307660 -y 95.411590 -U 0.000000 -V 0.000000 -T 0.000000
n -t 0.000000 -s 0 -x 59.267490 -y 78.961330 -U 0.000000 -V 0.000000 -T 0.000000
n -t 0.000000 -s 3 -x 40.840680 -y 62.899520 -U 0.000000 -V 0.000000 -T 0.000000
n -t 1.000000 -s 8 -x 35.480481 -y 25.383749 -U 0.000000 -V 0.000000 -T 0.000000
n -t 1.000000 -s 1 -x 43.008176 -y 6.572195 -U 0.000000 -V 0.000000 -T 0.000000
n -t 1.000000 -s 2 -x 12.274108 -y 70.276353 -U 0.000000 -V 0.000000 -T 0.000000
n -t 1.000000 -s 4 -x 61.404925 -y 62.879326 -U 0.000000 -V 0.000000 -T 0.000000
n -t 1.000000 -s 6 -x 37.520160 -y 93.315130 -U 0.000000 -V 0.000000 -T 0.000000
n -t 1.000000 -s 7 -x 41.307660 -y 95.411590 -U 0.000000 -V 0.000000 -T 0.000000
n -t 1.000000 -s 0 -x 59.267490 -y 78.961330 -U 0.000000 -V 0.000000 -T 0.000000
n -t 1.000000 -s 3 -x 40.840680 -y 62.899520 -U 0.000000 -V 0.000000 -T 0.000000
n -t 1.000000 -s 6 -x 37.520160 -y 93.315130 -U 0.000000 -V 0.000000 -T 0.000000
n -t 1.000000 -s 7 -x 41.307660 -y 95.411590 -U -0.993233 -V -0.116136 -T 18.051786
n -t 1.000000 -s 8 -x 35.480481 -y 25.383749 -U -0.868385 -V -0.495890 -T 16.324977
n -t 1.000000 -s 2 -x 12.274108 -y 70.276353 -U -0.253919 -V 0.967225 -T 24.446126
n -t 1.000000 -s 1 -x 43.008176 -y 6.572195 -U -0.821745 -V 0.569856 -T 43.622069
n -t 1.000000 -s 0 -x 59.267490 -y 78.961330 -U -0.999983 -V 0.005898 -T 35.890090
n -t 1.000000 -s 3 -x 40.840680 -y 62.899520 -U -0.425869 -V 0.904785 -T 41.004755
n -t 1.000000 -s 4 -x 61.404925 -y 62.879326 -U -0.925177 -V 0.379535 -T 44.527692
n -t 1.000000 -s 8 -x 35.480481 -y 25.383749 -U -0.868385 -V -0.495890 -T 11.324977
n -t 1.000000 -s 2 -x 12.274108 -y 70.276353 -U -0.253919 -V 0.967225 -T 19.446126
n -t 1.000000 -s 7 -x 41.307660 -y 95.411590 -U 0.000000 -V 0.000000 -T 0.000000
n -t 1.000000 -s 0 -x 59.267490 -y 78.961330 -U 0.000000 -V 0.000000 -T 0.000000
n -t 1.000000 -s 3 -x 40.840680 -y 62.899520 -U 0.000000 -V 0.000000 -T 0.000000
n -t 2.000000 -s 8 -x 34.612096 -y 24.887859 -U 0.000000 -V 0.000000 -T 0.000000
n -t 2.000000 -s 1 -x 42.186431 -y 7.142051 -U 0.000000 -V 0.000000 -T 0.000000
n -t 2.000000 -s 2 -x 12.020189 -y 71.243578 -U 0.000000 -V 0.000000 -T 0.000000
n -t 2.000000 -s 4 -x 60.479747 -y 63.258861 -U 0.000000 -V 0.000000 -T 0.000000
n -t 2.000000 -s 6 -x 37.520160 -y 93.315130 -U 0.000000 -V 0.000000 -T 0.000000
n -t 2.000000 -s 7 -x 41.307660 -y 95.411590 -U 0.000000 -V 0.000000 -T 0.000000
n -t 2.000000 -s 0 -x 59.267490 -y 78.961330 -U 0.000000 -V 0.000000 -T 0.000000
n -t 2.000000 -s 3 -x 40.840680 -y 62.899520 -U 0.000000 -V 0.000000 -T 0.000000
n -t 2.000000 -s 6 -x 37.520160 -y 93.315130 -U 0.000000 -V 0.000000 -T 0.000000
n -t 2.000000 -s 7 -x 41.307660 -y 95.411590 -U -0.993233 -V -0.116136 -T 18.051786
n -t 2.000000 -s 8 -x 34.612096 -y 24.887859 -U -0.931961 -V -0.362558 -T 16.723937
n -t 2.000000 -s 2 -x 12.020189 -y 71.243578 -U -0.207726 -V 0.978187 -T 21.157405
n -t 2.000000 -s 1 -x 42.186431 -y 7.142051 -U -0.822195 -V 0.569206 -T 45.369446
n -t 2.000000 -s 0 -x 59.267490 -y 78.961330 -U -0.999983 -V 0.005898 -T 35.890090
n -t 2.000000 -s 3 -x 40.840680 -y 62.899520 -U -0.788088 -V 0.615562 -T 24.201984
n -t 2.000000 -s 4 -x 60.479747 -y 63.258861 -U -0.710551 -V 0.703645 -T 52.215411
n -t 2.000000 -s 8 -x 34.612096 -y 24.887859 -U -0.931961 -V -0.362558 -T 11.723937
n -t 2.000000 -s 2 -x 12.020189 -y 71.243578 -U -0.207726 -V 0.978187 -T 16.157405
n -t 2.000000 -s 7 -x 41.307660 -y 95.411590 -U 0.000000 -V 0.000000 -T 0.000000
n -t 2.000000 -s 0 -x 59.267490 -y 78.961330 -U 0.000000 -V 0.000000 -T 0.000000
n -t 2.000000 -s 4 -x 60.479747 -y 63.258861 -U 0.000000 -V 0.000000 -T 0.000000
n -t 3.000000 -s 8 -x 33.680134 -y 24.525301 -U 0.000000 -V 0.000000 -T 0.000000
n -t 3.000000 -s 1 -x 41.364236 -y 7.711257 -U 0.000000 -V 0.000000 -T 0.000000
n -t 3.000000 -s 2 -x 11.812463 -y 72.221765 -U 0.000000 -V 0.000000 -T 0.000000
n -t 3.000000 -s 3 -x 40.052592 -y 63.515082 -U 0.000000 -V 0.000000 -T 0.000000
n -t 3.000000 -s 6 -x 37.520160 -y 93.315130 -U 0.000000 -V 0.000000 -T 0.000000
n -t 3.000000 -s 7 -x 41.307660 -y 95.411590 -U 0.000000 -V 0.000000 -T 0.000000
n -t 3.000000 -s 0 -x 59.267490 -y 78.961330 -U 0.000000 -V 0.000000 -T 0.000000
n -t 3.000000 -s 4 -x 60.479747 -y 63.258861 -U 0.000000 -V 0.000000 -T 0.000000
n -t 3.000000 -s 6 -x 37.520160 -y 93.315130 -U 0.000000 -V 0.000000 -T 0.000000
n -t 3.000000 -s 7 -x 41.307660 -y 95.411590 -U -0.993233 -V -0.116136 -T 18.051786
n -t 3.000000 -s 8 -x 33.680134 -y 24.525301 -U -0.971057 -V -0.238846 -T 17.436846
n -t 3.000000 -s 2 -x 11.812463 -y 72.221765 -U -0.146615 -V 0.989194 -T 17.929674
n -t 3.000000 -s 1 -x 41.364236 -y 7.711257 -U -0.822602 -V 0.568617 -T 47.116848
n -t 3.000000 -s 3 -x 40.052592 -y 63.515082 -U -0.805619 -V 0.592434 -T 20.762600
n -t 3.000000 -s 0 -x 59.267490 -y 78.961330 -U -0.999983 -V 0.005898 -T 35.890090
n -t 3.000000 -s 4 -x 60.479747 -y 63.258861 -U -0.710551 -V 0.703645 -T 52.215411
n -t 3.000000 -s 8 -x 33.680134 -y 24.525301 -U -0.971057 -V -0.238846 -T 12.436846
n -t 3.000000 -s 2 -x 11.812463 -y 72.221765 -U -0.146615 -V 0.989194 -T 12.929674
n -t 3.000000 -s 7 -x 41.307660 -y 95.411590 -U 0.000000 -V 0.000000 -T 0.000000
n -t 3.000000 -s 0 -x 59.267490 -y 78.961330 -U 0.000000 -V 0.000000 -T 0.000000
n -t 3.000000 -s 4 -x 60.479747 -y 63.258861 -U 0.000000 -V 0.000000 -T 0.000000
n -t 4.000000 -s 8 -x 32.709077 -y 24.286456 -U 0.000000 -V 0.000000 -T 0.000000
n -t 4.000000 -s 1 -x 40.541634 -y 8.279874 -U 0.000000 -V 0.000000 -T 0.000000
n -t 4.000000 -s 2 -x 11.665848 -y 73.210959 -U 0.000000 -V 0.000000 -T 0.000000
n -t 4.000000 -s 3 -x 39.246973 -y 64.107516 -U 0.000000 -V 0.000000 -T 0.000000
n -t 4.000000 -s 6 -x 37.520160 -y 93.315130 -U 0.000000 -V 0.000000 -T 0.000000
n -t 4.000000 -s 7 -x 41.307660 -y 95.411590 -U 0.000000 -V 0.000000 -T 0.000000
n -t 4.000000 -s 0 -x 59.267490 -y 78.961330 -U 0.000000 -V 0.000000 -T 0.000000
n -t 4.000000 -s 4 -x 60.479747 -y 63.258861 -U 0.000000 -V 0.000000 -T 0.000000
n -t 4.000000 -s 6 -x 37.520160 -y 93.315130 -U 0.000000 -V 0.000000 -T 0.000000
n -t 4.000000 -s 2 -x 11.665848 -y 73.210959 -U -0.062436 -V 0.998049 -T 14.793799
n -t 4.000000 -s 7 -x 41.307660 -y 95.411590 -U -0.993233 -V -0.116136 -T 18.051786
n -t 4.000000 -s 8 -x 32.709077 -y 24.286456 -U -0.991525 -V -0.129913 -T 18.395092
n -t 4.000000 -s 1 -x 40.541634 -y 8.279874 -U -0.822971 -V 0.568083 -T 48.864272
n -t 4.000000 -s 3 -x 39.246973 -y 64.107516 -U -0.828007 -V 0.560718 -T 17.346058
n -t 4.000000 -s 0 -x 59.267490 -y 78.961330 -U -0.999983 -V 0.005898 -T 35.890090
n -t 4.000000 -s 4 -x 60.479747 -y 63.258861 -U -0.710551 -V 0.703645 -T 52.215411
n -t 4.000000 -s 8 -x 32.709077 -y 24.286456 -U -0.991525 -V -0.129913 -T 13.395092
n -t 4.000000 -s 2 -x 11.665848 -y 73.210959 -U -0.062436 -V 0.998049 -T 9.793799
n -t 4.000000 -s 7 -x 41.307660 -y 95.411590 -U 0.000000 -V 0.000000 -T 0.000000
n -t 4.000000 -s 0 -x 59.267490 -y 78.961330 -U 0.000000 -V 0.000000 -T 0.000000
n -t 4.000000 -s 4 -x 60.479747 -y 63.258861 -U 0.000000 -V 0.000000 -T 0.000000
n -t 5.000000 -s 8 -x 31.717551 -y 24.156543 -U 0.000000 -V 0.000000 -T 0.000000
n -t 5.000000 -s 1 -x 39.718663 -y 8.847957 -U 0.000000 -V 0.000000 -T 0.000000
n -t 5.000000 -s 2 -x 11.603412 -y 74.209008 -U 0.000000 -V 0.000000 -T 0.000000
n -t 5.000000 -s 3 -x 38.418966 -y 64.668234 -U 0.000000 -V 0.000000 -T 0.000000
n -t 5.000000 -s 6 -x 37.520160 -y 93.315130 -U 0.000000 -V 0.000000 -T 0.000000
n -t 5.000000 -s 7 -x 41.307660 -y 95.411590 -U 0.000000 -V 0.000000 -T 0.000000
n -t 5.000000 -s 0 -x 59.267490 -y 78.961330 -U 0.000000 -V 0.000000 -T 0.000000
n -t 5.000000 -s 4 -x 60.479747 -y 63.258861 -U 0.000000 -V 0.000000 -T 0.000000
n -t 5.000000 -s 6 -x 37.520160 -y 93.315130 -U 0.000000 -V 0.000000 -T 0.000000
n -t 5.000000 -s 2 -x 11.603412 -y 74.209008 -U 0.059059 -V 0.998254 -T 11.805703
n -t 5.000000 -s 7 -x 41.307660 -y 95.411590 -U -0.993233 -V -0.116136 -T 18.051786
n -t 5.000000 -s 8 -x 31.717551 -y 24.156543 -U -0.999314 -V -0.037040 -T 19.539163
n -t 5.000000 -s 1 -x 39.718663 -y 8.847957 -U -0.810279 -V 0.586044 -T 49.018488
n -t 5.000000 -s 3 -x 38.418966 -y 64.668234 -U -0.857555 -V 0.514392 -T 13.965491
n -t 5.000000 -s 0 -x 59.267490 -y 78.961330 -U -0.999983 -V 0.005898 -T 35.890090
n -t 5.000000 -s 4 -x 60.479747 -y 63.258861 -U -0.710551 -V 0.703645 -T 52.215411
n -t 5.000000 -s 8 -x 31.717551 -y 24.156543 -U -0.999314 -V -0.037040 -T 14.539163
n -t 5.000000 -s 2 -x 11.603412 -y 74.209008 -U 0.059059 -V 0.998254 -T 6.805703
n -t 5.000000 -s 6 -x 37.520160 -y 93.315130 -U -0.925014 -V -0.379933 -T 0.337890
n -t 5.000000 -s 7 -x 41.307660 -y 95.411590 -U 0.000000 -V 0.000000 -T 0.000000
n -t 5.000000 -s 0 -x 59.267490 -y 78.961330 -U 0.000000 -V 0.000000 -T 0.000000
n -t 5.000000 -s 4 -x 60.479747 -y 63.258861 -U 0.000000 -V 0.000000 -T 0.000000
n -t 6.000000 -s 8 -x 30.718238 -y 24.119503 -U 0.000000 -V 0.000000 -T 0.000000
n -t 6.000000 -s 1 -x 38.908384 -y 9.434001 -U 0.000000 -V 0.000000 -T 0.000000
n -t 6.000000 -s 2 -x 11.662471 -y 75.207263 -U 0.000000 -V 0.000000 -T 0.000000
n -t 6.000000 -s 3 -x 37.561410 -y 65.182626 -U 0.000000 -V 0.000000 -T 0.000000
n -t 6.000000 -s 6 -x 37.207607 -y 93.186755 -U 0.000000 -V 0.000000 -T 0.000000
n -t 6.000000 -s 7 -x 41.307660 -y 95.411590 -U 0.000000 -V 0.000000 -T 0.000000
n -t 6.000000 -s 0 -x 59.267490 -y 78.961330 -U 0.000000 -V 0.000000 -T 0.000000
n -t 6.000000 -s 4 -x 60.479747 -y 63.258861 -U 0.000000 -V 0.000000 -T 0.000000
n -t 6.000000 -s 6 -x 37.207607 -y 93.186755 -U 0.925014 -V 0.379933 -T 0.337890
n -t 6.000000 -s 2 -x 11.662471 -y 75.207263 -U 0.242057 -V 0.970262 -T 9.074919
n -t 6.000000 -s 7 -x 41.307660 -y 95.411590 -U -0.993233 -V -0.116136 -T 18.051786
n -t 6.000000 -s 8 -x 30.718238 -y 24.119503 -U -0.999168 -V 0.040795 -T 20.821853
n -t 6.000000 -s 3 -x 37.561410 -y 65.182626 -U -0.897876 -V 0.440248 -T 10.647522
n -t 6.000000 -s 1 -x 38.908384 -y 9.434001 -U -0.795111 -V 0.606464 -T 48.934550
n -t 6.000000 -s 0 -x 59.267490 -y 78.961330 -U -0.999983 -V 0.005898 -T 35.890090
n -t 6.000000 -s 4 -x 60.479747 -y 63.258861 -U -0.710551 -V 0.703645 -T 52.215411
n -t 6.000000 -s 8 -x 30.718238 -y 24.119503 -U -0.999168 -V 0.040795 -T 15.821853
n -t 6.000000 -s 2 -x 11.662471 -y 75.207263 -U 0.242057 -V 0.970262 -T 4.074919
n -t 6.000000 -s 3 -x 37.561410 -y 65.182626 -U 0.000000 -V 0.000000 -T 0.000000
n -t 6.000000 -s 6 -x 37.207607 -y 93.186755 -U -0.925014 -V -0.379933 -T 1.067578
n -t 6.000000 -s 7 -x 41.307660 -y 95.411590 -U 0.000000 -V 0.000000 -T 0.000000
n -t 6.000000 -s 0 -x 59.267490 -y 78.961330 -U 0.000000 -V 0.000000 -T 0.000000
n -t 6.000000 -s 4 -x 60.479747 -y 63.258861 -U 0.000000 -V 0.000000 -T 0.000000
n -t 7.000000 -s 8 -x 29.719070 -y 24.160298 -U 0.000000 -V 0.000000 -T 0.000000
n -t 7.000000 -s 1 -x 38.113273 -y 10.040466 -U 0.000000 -V 0.000000 -T 0.000000
n -t 7.000000 -s 2 -x 11.904528 -y 76.177525 -U 0.000000 -V 0.000000 -T 0.000000
n -t 7.000000 -s 3 -x 37.561410 -y 65.182626 -U 0.000000 -V 0.000000 -T 0.000000
n -t 7.000000 -s 6 -x 36.282593 -y 92.806822 -U 0.000000 -V 0.000000 -T 0.000000
n -t 7.000000 -s 7 -x 41.307660 -y 95.411590 -U 0.000000 -V 0.000000 -T 0.000000
n -t 7.000000 -s 0 -x 59.267490 -y 78.961330 -U 0.000000 -V 0.000000 -T 0.000000
n -t 7.000000 -s 4 -x 60.479747 -y 63.258861 -U 0.000000 -V 0.000000 -T 0.000000
n -t 7.000000 -s 6 -x 36.282593 -y 92.806822 -U 0.925014 -V 0.379933 -T 1.337890
n -t 7.000000 -s 2 -x 11.904528 -y 76.177525 -U 0.242057 -V 0.970262 -T 8.074919
n -t 7.000000 -s 8 -x 29.719070 -y 24.160298 -U -0.994410 -V 0.105583 -T 22.207560
n -t 7.000000 -s 7 -x 41.307660 -y 95.411590 -U -0.993233 -V -0.116136 -T 18.051786
n -t 7.000000 -s 3 -x 37.561410 -y 65.182626 -U -0.897876 -V 0.440248 -T 10.647522
n -t 7.000000 -s 1 -x 38.113273 -y 10.040466 -U -0.779709 -V 0.626142 -T 48.881410
n -t 7.000000 -s 0 -x 59.267490 -y 78.961330 -U -0.999983 -V 0.005898 -T 35.890090
n -t 7.000000 -s 4 -x 60.479747 -y 63.258861 -U -0.710551 -V 0.703645 -T 52.215411
n -t 7.000000 -s 8 -x 29.719070 -y 24.160298 -U -0.994410 -V 0.105583 -T 17.207560
n -t 7.000000 -s 2 -x 11.904528 -y 76.177525 -U 0.514632 -V 0.857411 -T 1.826357
n -t 7.000000 -s 3 -x 37.561410 -y 65.182626 -U 0.000000 -V 0.000000 -T 0.000000
n -t 7.000000 -s 6 -x 36.282593 -y 92.806822 -U -0.925014 -V -0.379933 -T 1.135156
n -t 7.000000 -s 7 -x 41.307660 -y 95.411590 -U 0.000000 -V 0.000000 -T 0.000000
n -t 7.000000 -s 0 -x 59.267490 -y 78.961330 -U 0.000000 -V 0.000000 -T 0.000000
n -t 7.000000 -s 4 -x 60.479747 -y 63.258861 -U 0.000000 -V 0.000000 -T 0.000000
n -t 8.000000 -s 8 -x 28.724660 -y 24.265881 -U 0.000000 -V 0.000000 -T 0.000000
n -t 8.000000 -s 1 -x 37.333564 -y 10.666608 -U 0.000000 -V 0.000000 -T 0.000000
n -t 8.000000 -s 2 -x 12.419160 -y 77.034936 -U 0.000000 -V 0.000000 -T 0.000000
n -t 8.000000 -s 3 -x 37.561410 -y 65.182626 -U 0.000000 -V 0.000000 -T 0.000000
n -t 8.000000 -s 6 -x 35.357579 -y 92.426889 -U 0.000000 -V 0.000000 -T 0.000000
n -t 8.000000 -s 7 -x 41.307660 -y 95.411590 -U 0.000000 -V 0.000000 -T 0.000000
n -t 8.000000 -s 0 -x 59.267490 -y 78.961330 -U 0.000000 -V 0.000000 -T 0.000000
n -t 8.000000 -s 4 -x 60.479747 -y 63.258861 -U 0.000000 -V 0.000000 -T 0.000000
n -t 8.000000 -s 2 -x 12.419160 -y 77.034936 -U 0.202116 -V 0.979362 -T 7.124413
n -t 8.000000 -s 6 -x 35.357579 -y 92.426889 -U -0.925014 -V -0.379933 -T 6.202734
n -t 8.000000 -s 8 -x 28.724660 -y 24.265881 -U -0.987199 -V 0.159495 -T 23.670107
n -t 8.000000 -s 7 -x 41.307660 -y 95.411590 -U -0.979281 -V -0.202504 -T 26.376316
n -t 8.000000 -s 3 -x 37.561410 -y 65.182626 -U -0.897876 -V 0.440248 -T 10.647522
n -t 8.000000 -s 1 -x 37.333564 -y 10.666608 -U -0.764125 -V 0.645068 -T 48.857919
n -t 8.000000 -s 0 -x 59.267490 -y 78.961330 -U -0.997610 -V -0.069102 -T 43.894589
n -t 8.000000 -s 4 -x 60.479747 -y 63.258861 -U -0.774620 -V 0.632427 -T 58.095475
n -t 8.000000 -s 8 -x 28.724660 -y 24.265881 -U -0.987199 -V 0.159495 -T 18.670107
n -t 8.000000 -s 2 -x 12.419160 -y 77.034936 -U 0.834084 -V 0.551638 -T 0.463357
n -t 8.000000 -s 3 -x 37.561410 -y 65.182626 -U 0.000000 -V 0.000000 -T 0.000000
n -t 8.000000 -s 6 -x 35.357579 -y 92.426889 -U -0.925014 -V -0.379933 -T 1.202734
n -t 8.000000 -s 7 -x 41.307660 -y 95.411590 -U 0.000000 -V 0.000000 -T 0.000000
n -t 8.000000 -s 0 -x 59.267490 -y 78.961330 -U 0.000000 -V 0.000000 -T 0.000000
n -t 8.000000 -s 4 -x 60.479747 -y 63.258861 -U 0.000000 -V 0.000000 -T 0.000000
n -t 9.000000 -s 8 -x 27.737461 -y 24.425376 -U 0.000000 -V 0.000000 -T 0.000000
n -t 9.000000 -s 1 -x 36.569439 -y 11.311676 -U 0.000000 -V 0.000000 -T 0.000000
n -t 9.000000 -s 2 -x 12.805638 -y 77.290541 -U 0.000000 -V 0.000000 -T 0.000000
n -t 9.000000 -s 3 -x 37.561410 -y 65.182626 -U 0.000000 -V 0.000000 -T 0.000000
n -t 9.000000 -s 6 -x 34.432565 -y 92.046957 -U 0.000000 -V 0.000000 -T 0.000000
n -t 9.000000 -s 7 -x 41.307660 -y 95.411590 -U 0.000000 -V 0.000000 -T 0.000000
n -t 9.000000 -s 0 -x 59.267490 -y 78.961330 -U 0.000000 -V 0.000000 -T 0.000000
n -t 9.000000 -s 4 -x 60.479747 -y 63.258861 -U 0.000000 -V 0.000000 -T 0.000000
n -t 9.000000 -s 2 -x 12.805638 -y 77.290541 -U 0.154836 -V 0.987940 -T 6.803825
n -t 9.000000 -s 6 -x 34.432565 -y 92.046957 -U -0.925014 -V -0.379933 -T 5.202734
n -t 9.000000 -s 8 -x 27.737461 -y 24.425376 -U -0.978863 -V 0.204518 -T 25.190433
n -t 9.000000 -s 7 -x 41.307660 -y 95.411590 -U -0.979281 -V -0.202504 -T 26.376316
n -t 9.000000 -s 3 -x 37.561410 -y 65.182626 -U -0.897876 -V 0.440248 -T 10.647522
n -t 9.000000 -s 1 -x 36.569439 -y 11.311676 -U -0.748409 -V 0.663238 -T 48.862918
n -t 9.000000 -s 0 -x 59.267490 -y 78.961330 -U -0.997610 -V -0.069102 -T 43.894589
n -t 9.000000 -s 4 -x 60.479747 -y 63.258861 -U -0.774620 -V 0.632427 -T 58.095475
n -t 9.000000 -s 8 -x 27.737461 -y 24.425376 -U -0.978863 -V 0.204518 -T 20.190433
n -t 9.000000 -s 2 -x 12.805638 -y 77.290541 -U 0.990941 -V 0.134296 -T 0.781259
n -t 9.000000 -s 3 -x 37.561410 -y 65.182626 -U 0.000000 -V 0.000000 -T 0.000000
n -t 9.000000 -s 6 -x 34.432565 -y 92.046957 -U -0.925014 -V -0.379933 -T 1.270312
n -t 9.000000 -s 7 -x 41.307660 -y 95.411590 -U 0.000000 -V 0.000000 -T 0.000000
n -t 9.000000 -s 0 -x 59.267490 -y 78.961330 -U 0.000000 -V 0.000000 -T 0.000000
n -t 9.000000 -s 4 -x 60.479747 -y 63.258861 -U 0.000000 -V 0.000000 -T 0.000000
n -t 10.000000 -s 8 -x 26.758598 -y 24.629894 -U 0.000000 -V 0.000000 -T 0.000000
n -t 10.000000 -s 1 -x 35.821030 -y 11.974913 -U 0.000000 -V 0.000000 -T 0.000000
n -t 10.000000 -s 2 -x 13.579820 -y 77.395461 -U 0.000000 -V 0.000000 -T 0.000000
n -t 10.000000 -s 3 -x 37.561410 -y 65.182626 -U 0.000000 -V 0.000000 -T 0.000000
n -t 10.000000 -s 6 -x 33.507550 -y 91.667024 -U 0.000000 -V 0.000000 -T 0.000000
n -t 10.000000 -s 7 -x 41.307660 -y 95.411590 -U 0.000000 -V 0.000000 -T 0.000000
n -t 10.000000 -s 0 -x 59.267490 -y 78.961330 -U 0.000000 -V 0.000000 -T 0.000000
n -t 10.000000 -s 4 -x 60.479747 -y 63.258861 -U 0.000000 -V 0.000000 -T 0.000000
n -t 10.000000 -s 6 -x 33.507550 -y 91.667024 -U -0.925014 -V -0.379933 -T 4.202734
n -t 10.000000 -s 2 -x 13.579820 -y 77.395461 -U 0.980358 -V -0.197227 -T 6.643672
n -t 10.000000 -s 8 -x 26.758598 -y 24.629894 -U -0.972242 -V 0.233979 -T 26.137007
n -t 10.000000 -s 7 -x 41.307660 -y 95.411590 -U -0.979281 -V -0.202504 -T 26.376316
n -t 10.000000 -s 3 -x 37.561410 -y 65.182626 -U -0.716378 -V -0.697713 -T 4.643192
n -t 10.000000 -s 1 -x 35.821030 -y 11.974913 -U -0.736368 -V 0.676581 -T 48.645530
n -t 10.000000 -s 0 -x 59.267490 -y 78.961330 -U -0.997610 -V -0.069102 -T 43.894589
n -t 10.000000 -s 4 -x 60.479747 -y 63.258861 -U -0.774620 -V 0.632427 -T 58.095475
n -t 10.000000 -s 8 -x 26.758598 -y 24.629894 -U -0.972242 -V 0.233979 -T 21.137007
n -t 10.000000 -s 3 -x 37.561410 -y 65.182626 -U -0.938318 -V 0.345773 -T 11.080833
n -t 10.000000 -s 2 -x 13.579820 -y 77.395461 -U 0.980