n -t * -s 0  -x 40.283920000000002 -y 34.495040000000003 -Z 0 -z 1  -v circle -c black
n -t * -s 1  -x 52.523569999999999 -y 27.380690000000001 -Z 0 -z 1  -v circle -c black
n -t * -s 2  -x 3.3028569999999999 -y 50.258920000000003 -Z 0 -z 1  -v circle -c black
n -t * -s 3  -x 55.076000000000001 -y 87.119029999999995 -Z 0 -z 1  -v circle -c black
n -t * -s 4  -x 44.216419999999999 -y 28.092449999999999 -Z 0 -z 1  -v circle -c black
n -t * -s 5  -x 23.558340000000001 -y 98.408150000000006 -Z 0 -z 1  -v circle -c black
n -t * -s 6  -x 70.193939999999998 -y 98.830169999999995 -Z 0 -z 1  -v circle -c black
n -t * -s 7  -x 18.727499999999999 -y 47.070259999999998 -Z 0 -z 1  -v circle -c black
n -t * -s 8  -x 45.568980000000003 -y 29.73244 -Z 0 -z 1  -v circle -c black
n -t * -s 9  -x 57.708710000000004 -y 65.889139999999998 -Z 0 -z 1  -v circle -c black
n -t * -s 10  -x 7.697692 -y 49.15157 -Z 0 -z 1  -v circle -c black
n -t * -s 11  -x 35.254980000000003 -y 16.58081 -Z 0 -z 1  -v circle -c black
n -t * -s 12  -x 46.795189999999998 -y 20.659929999999999 -Z 0 -z 1  -v circle -c black
n -t * -s 13  -x 78.346879999999999 -y 54.638820000000003 -Z 0 -z 1  -v circle -c black
n -t * -s 14  -x 10.051640000000001 -y 35.181820000000002 -Z 0 -z 1  -v circle -c black
n -t * -s 15  -x 9.1707599999999996 -y 56.80189 -Z 0 -z 1  -v circle -c black
n -t * -s 16  -x 34.525849999999998 -y 55.642440000000001 -Z 0 -z 1  -v circle -c black
n -t * -s 17  -x 98.855540000000005 -y 1.050451 -Z 0 -z 1  -v circle -c black
n -t * -s 18  -x 22.628979999999999 -y 47.981169999999999 -Z 0 -z 1  -v circle -c black
n -t * -s 19  -x 46.086759999999998 -y 73.525790000000001 -Z 0 -z 1  -v circle -c black
n -t * -s 20  -x 34.47336 -y 56.142429999999997 -Z 0 -z 2  -v circle -c black
V -t * -v 1.0a5 -a 0
W -t * -x 100 -y 100
A -t * -n 1 -p 0 -o 0x7fffffff -c 30 -a 1
A -t * -h 1 -m 1073741823 -s 0
n -t 0 -s 20 -S COLOR -c red -o black -i red -I black
n -t 0.000000 -s 20 -x 34.473360 -y 56.142430 -U 0.848668 -V 0.754509 -T 42.876665
n -t 57.000000 -s 20 -x 70.861420 -y 88.493260 -U 0.123739 -V -1.315058 -T 61.250977
