n -t * -s 0  -x 157.3963 -y 263.25470000000001 -Z 0 -z 1  -v circle -c black
n -t * -s 1  -x 21.835940000000001 -y 277.51990000000001 -Z 0 -z 1  -v circle -c black
n -t * -s 2  -x 239.3434 -y 424.35759999999999 -Z 0 -z 1  -v circle -c black
n -t * -s 3  -x 53.206229999999998 -y 255.44589999999999 -Z 0 -z 1  -v circle -c black
n -t * -s 4  -x 2.1907230000000002 -y 68.344999999999999 -Z 0 -z 1  -v circle -c black
n -t * -s 5  -x 382.33679999999998 -y 72.557940000000002 -Z 0 -z 1  -v circle -c black
n -t * -s 6  -x 115.69 -y 123.5462 -Z 0 -z 1  -v circle -c black
n -t * -s 7  -x 361.42309999999998 -y 363.87549999999999 -Z 0 -z 1  -v circle -c black
n -t * -s 8  -x 112.3557 -y 94.233050000000006 -Z 0 -z 1  -v circle -c black
n -t * -s 9  -x 172.28540000000001 -y 25.628170000000001 -Z 0 -z 1  -v circle -c black
n -t * -s 10  -x 67.045829999999995 -y 299.5256 -Z 0 -z 1  -v circle -c black
n -t * -s 11  -x 124.4978 -y 212.26419999999999 -Z 0 -z 1  -v circle -c black
n -t * -s 12  -x 434.4692 -y 11.1302 -Z 0 -z 1  -v circle -c black
n -t * -s 13  -x 128.74850000000001 -y 440.74790000000002 -Z 0 -z 1  -v circle -c black
n -t * -s 14  -x 298.67939999999999 -y 142.56110000000001 -Z 0 -z 1  -v circle -c black
n -t * -s 15  -x 227.99629999999999 -y 195.71719999999999 -Z 0 -z 1  -v circle -c black
n -t * -s 16  -x 109.8154 -y 78.840069999999997 -Z 0 -z 1  -v circle -c black
n -t * -s 17  -x 340.34399999999999 -y 275.8954 -Z 0 -z 1  -v circle -c black
n -t * -s 18  -x 139.9101 -y 338.84949999999998 -Z 0 -z 1  -v circle -c black
n -t * -s 19  -x 156.19370000000001 -y 208.16650000000001 -Z 0 -z 1  -v circle -c black
n -t * -s 20  -x 44.661239999999999 -y 363.78289999999998 -Z 0 -z 2  -v circle -c black
V -t * -v 1.0a5 -a 0
W -t * -x 500 -y 500
A -t * -n 1 -p 0 -o 0x7fffffff -c 30 -a 1
A -t * -h 1 -m 1073741823 -s 0
n -t 0 -s 20 -S COLOR -c red -o black -i red -I black
n -t 0.000000 -s 20 -x 44.661240 -y 363.782900 -U 3.361938 -V 3.000172 -T 15.299121
n -t 21.000000 -s 20 -x 96.095930 -y 409.682900 -U 1.241129 -V -4.308464 -T 62.584259
n -t 31.000000 -s 18 -x 139.910100 -y 338.849500 -U -0.749360 -V 0.662163 -T 36.906258
n -t 32.000000 -s 18 -x 139.160740 -y 339.511663 -U -0.790629 -V 0.612295 -T 32.201236
n -t 33.000000 -s 18 -x 138.370111 -y 340.123958 -U -0.837604 -V 0.546277 -T 27.689214
n -t 34.000000 -s 18 -x 137.532506 -y 340.670235 -U -0.889427 -V 0.457077 -T 23.447397
n -t 35.000000 -s 18 -x 136.643079 -y 341.127312 -U -0.942235 -V 0.334952 -T 19.591881
n -t 36.000000 -s 18 -x 135.700844 -y 341.462264 -U -0.985656 -V 0.168770 -T 16.293414
n -t 37.000000 -s 18 -x 134.715188 -y 341.631034 -U -0.998893 -V -0.047042 -T 13.781980
n -t 38.000000 -s 18 -x 133.716295 -y 341.583991 -U -0.954774 -V -0.297333 -T 12.303745
n -t 39.000000 -s 18 -x 132.761522 -y 341.286658 -U -0.842593 -V -0.538550 -T 12.001391
n -t 40.000000 -s 18 -x 131.918928 -y 340.748108 -U -0.687621 -V -0.726069 -T 12.802728
n -t 41.000000 -s 18 -x 131.231307 -y 340.022039 -U -0.529815 -V -0.848113 -T 14.464870
n -t 42.000000 -s 18 -x 130.701491 -y 339.173926 -U -0.393289 -V -0.919415 -T 16.718989
n -t 43.000000 -s 18 -x 130.308202 -y 338.254511 -U -0.283582 -V -0.958948 -T 19.357745
n -t 44.000000 -s 18 -x 130.024620 -y 337.295563 -U -0.197572 -V -0.980288 -T 22.244353
n -t 45.000000 -s 18 -x 129.827048 -y 336.315274 -U -0.130194 -V -0.991489 -T 25.293341
n -t 46.000000 -s 18 -x 129.696854 -y 335.323786 -U -0.076908 -V -0.997038 -T 28.451552
n -t 47.000000 -s 18 -x 129.619947 -y 334.326748 -U -0.034200 -V -0.999415 -T 31.685361
n -t 48.000000 -s 0 -x 157.396300 -y 263.254700 -U -0.678353 -V 0.734736 -T 35.966670
n -t 48.000000 -s 18 -x 129.585746 -y 333.327333 -U 0.000517 -V -1.000000 -T 34.972954
n -t 49.000000 -s 0 -x 156.717947 -y 263.989436 -U -0.718316 -V 0.695717 -T 31.015337
n -t 50.000000 -s 0 -x 155.999631 -y 264.685153 -U -0.766224 -V 0.642574 -T 26.206220
n -t 51.000000 -s 0 -x 155.233407 -y 265.327727 -U -0.823295 -V 0.567614 -T 21.604804
n -t 52.000000 -s 0 -x 154.410112 -y 265.895341 -U -0.888883 -V 0.458134 -T 17.319208
n -t 53.000000 -s 0 -x 153.521229 -y 266.353475 -U -0.955633 -V 0.294560 -T 13.531335
n -t 54.000000 -s 0 -x 152.565596 -y 266.648035 -U -0.998482 -V 0.055070 -T 10.535969
n -t 55.000000 -s 0 -x 151.567114 -y 266.703105 -U -0.966803 -V -0.255524 -T 8.728530
n -t 56.000000 -s 0 -x 150.600311 -y 266.447581 -U -0.825647 -V -0.564187 -T 8.401425
n -t 57.000000 -s 0 -x 149.774664 -y 265.883395 -U -0.622749 -V -0.782422 -T 9.448961
n -t 58.000000 -s 0 -x 149.151915 -y 265.100973 -U -0.433482 -V -0.901162 -T 11.457884
n -t 58.000000 -s 11 -x 124.497800 -y 212.264200 -U 0.418642 -V 0.908151 -T 36.849365
n -t 59.000000 -s 0 -x 148.718433 -y 264.199810 -U -0.286771 -V -0.957999 -T 14.038143
n -t 59.000000 -s 11 -x 124.916442 -y 213.172351 -U 0.488210 -V 0.872726 -T 32.570708
n -t 59.000000 -s 19 -x 156.193700 -y 208.166500 -U -0.323801 -V 0.946125 -T 34.946915
n -t 60.000000 -s 0 -x 148.431663 -y 263.241811 -U -0.179168 -V -0.983818 -T 16.944080
n -t 60.000000 -s 11 -x 125.404653 -y 214.045077 -U 0.568853 -V 0.822439 -T 28.568125
n -t 60.000000 -s 19 -x 155.869899 -y 209.112625 -U -0.329855 -V 0.944031 -T 29.469398
n -t 61.000000 -s 0 -x 148.252494 -y 262.257993 -U -0.100295 -V -0.994958 -T 20.039894
n -t 61.000000 -s 11 -x 125.973506 -y 214.867516 -U 0.660402 -V 0.750913 -T 24.932700
n -t 61.000000 -s 19 -x 155.540044 -y 210.056657 -U -0.337967 -V 0.941158 -T 23.993753
n -t 62.000000 -s 0 -x 148.152199 -y 261.263035 -U -0.041412 -V -0.999142 -T 23.251377
n -t 62.000000 -s 11 -x 126.633907 -y 215.618429 -U 0.759698 -V 0.650275 -T 21.784747
n -t 62.000000 -s 19 -x 155.202077 -y 210.997815 -U -0.349466 -V 0.936949 -T 18.521111
n -t 63.000000 -s 0 -x 148.110787 -y 260.263893 -U 0.003570 -V -0.999994 -T 26.536664
n -t 63.000000 -s 11 -x 127.393606 -y 216.268704 -U 0.858203 -V 0.513310 -T 19.271359
n -t 63.000000 -s 19 -x 154.852610 -y 211.934764 -U -0.367193 -V 0.930145 -T 13.053822
n -t 64.000000 -s 0 -x 148.114356 -y 259.263899 -U 0.038718 -V -0.999250 -T 29.871080
n -t 64.000000 -s 11 -x 128.251809 -y 216.782014 -U 0.940882 -V 0.338735 -T 17.545537
n -t 64.000000 -s 19 -x 154.485417 -y 212.864908 -U -0.398554 -V 0.917145 -T 7.597852
n -t 65.000000 -s 0 -x 148.153075 -y 258.264649 -U 0.066752 -V -0.997770 -T 33.239435
n -t 65.000000 -s 11 -x 129.192691 -y 217.120749 -U 0.990481 -V 0.137652 -T 16.719693
n -t 65.000000 -s 19 -x 154.086863 -y 213.782053 -U -0.471246 -V 0.882002 -T 2.175098
n -t 65.000000 -s 0 -x 148.153075 -y 258.264649 -U 0.000000 -V 0.000000 -T 0.000000
n -t 65.000000 -s 11 -x 129.192691 -y 217.120749 -U 0.000000 -V 0.000000 -T 0.000000
n -t 66.000000 -s 0 -x 148.153075 -y 258.264649 -U 0.000000 -V 0.000000 -T 0.000000
n -t 66.000000 -s 11 -x 129.192691 -y 217.120749 -U 0.000000 -V 0.000000 -T 0.000000
n -t 67.000000 -s 0 -x 148.153075 -y 258.264649 -U 0.000000 -V 0.000000 -T 0.000000
n -t 67.000000 -s 11 -x 129.192691 -y 217.120749 -U 0.000000 -V 0.000000 -T 0.000000
n -t 68.000000 -s 0 -x 148.153075 -y 258.264649 -U 0.000000 -V 0.000000 -T 0.000000
n -t 68.000000 -s 11 -x 129.192691 -y 217.120749 -U 0.000000 -V 0.000000 -T 0.000000
n -t 70.000000 -s 11 -x 129.192691 -y 217.120749 -U 0.831032 -V -0.556225 -T 28.354423
n -t 70.000000 -s 19 -x 153.061858 -y 215.700493 -U 0.219222 -V -0.975675 -T 12.559442
n -t 71.000000 -s 11 -x 130.023723 -y 216.564524 -U 0.783554 -V -0.621324 -T 30.898843
n -t 71.000000 -s 19 -x 153.281080 -y 214.724818 -U 0.231561 -V -0.972820 -T 16.036873
n -t 72.000000 -s 11 -x 130.807277 -y 215.943200 -U 0.739883 -V -0.672736 -T 33.636190
n -t 72.000000 -s 19 -x 153.512641 -y 213.751998 -U 0.239875 -V -0.970804 -T 19.516528
n -t 73.000000 -s 11 -x 131.547160 -y 215.270464 -U 0.700572 -V -0.713582 -T 36.519655
n -t 73.000000 -s 19 -x 153.752516 -y 212.781194 -U 0.245813 -V -0.969317 -T 22.997441
n -t 74.000000 -s 19 -x 153.998329 -y 211.811877 -U 0.250244 -V -0.968183 -T 26.479125
n -t 75.000000 -s 19 -x 154.248573 -y 210.843694 -U 0.253662 -V -0.967293 -T 29.961308
n -t 76.000000 -s 19 -x 154.502235 -y 209.876401 -U 0.256369 -V -0.966579 -T 33.443833
n -t 77.000000 -s 19 -x 154.758604 -y 208.909822 -U 0.258561 -V -0.965995 -T 36.926598
