n -t * -s 0  -x 42.953580000000002 -y 97.950320000000005 -Z 0 -z 1  -v circle -c black
n -t * -s 1  -x 29.040759999999999 -y 57.83079 -Z 0 -z 1  -v circle -c black
n -t * -s 2  -x 54.206409999999998 -y 79.080349999999996 -Z 0 -z 1  -v circle -c black
n -t * -s 3  -x 36.853909999999999 -y 58.074039999999997 -Z 0 -z 1  -v circle -c black
n -t * -s 4  -x 4.5196540000000001 -y 92.367840000000001 -Z 0 -z 1  -v circle -c black
n -t * -s 5  -x 11.96034 -y 70.570700000000002 -Z 0 -z 1  -v circle -c black
n -t * -s 6  -x 49.531329999999997 -y 64.471000000000004 -Z 0 -z 1  -v circle -c black
n -t * -s 7  -x 2.1090650000000002 -y 30.29327 -Z 0 -z 1  -v circle -c black
n -t * -s 8  -x 22.07254 -y 43.624189999999999 -Z 0 -z 1  -v circle -c black
n -t * -s 9  -x 27.04392 -y 18.538679999999999 -Z 0 -z 1  -v circle -c black
n -t * -s 10  -x 94.652699999999996 -y 62.14226 -Z 0 -z 2  -v circle -c black
n -t * -s 11  -x 81.50197 -y 77.484690000000001 -Z 0 -z 2  -v circle -c black
n -t * -s 12  -x 35.451210000000003 -y 49.998959999999997 -Z 0 -z 2  -v circle -c black
V -t * -v 1.0a5 -a 0
W -t * -x 100 -y 100
A -t * -n 1 -p 0 -o 0x7fffffff -c 30 -a 1
A -t * -h 1 -m 1073741823 -s 0
n -t 0 -s 10 -S COLOR -c red -o black -i red -I black
n -t 0 -s 11 -S COLOR -c red -o black -i red -I black
n -t 0 -s 12 -S COLOR -c red -o black -i red -I black
n -t 0.000000 -s 10 -x 94.652700 -y 62.142260 -U -1.557725 -V 0.727198 -T 36.066397
n -t 0.000000 -s 11 -x 81.501970 -y 77.484690 -U -2.022644 -V -1.241636 -T 39.253194
n -t 0.000000 -s 12 -x 35.451210 -y 49.998960 -U 1.916853 -V 2.013574 -T 23.520724
n -t 0.000000 -s 6 -x 49.531330 -y 64.471000 -U 0.184745 -V -0.982787 -T 0.335683
n -t 0.000000 -s 3 -x 36.853910 -y 58.074040 -U -0.171144 -V -0.985246 -T 8.196004
n -t 0.000000 -s 1 -x 29.040760 -y 57.830790 -U 0.712651 -V 0.701518 -T 8.995211
n -t 0.000000 -s 2 -x 54.206410 -y 79.080350 -U 0.998296 -V -0.058359 -T 27.342160
n -t 0.000000 -s 8 -x 22.072540 -y 43.624190 -U -0.118914 -V 0.992905 -T 6.420325
n -t 0.000000 -s 5 -x 11.960340 -y 70.570700 -U 0.823945 -V -0.566669 -T 11.346305
n -t 0.000000 -s 0 -x 42.953580 -y 97.950320 -U 0.822070 -V -0.569386 -T 62.888919
n -t 0.000000 -s 9 -x 27.043920 -y 18.538680 -U 0.436720 -V 0.899598 -T 19.250991
n -t 0.000000 -s 7 -x 2.109065 -y 30.293270 -U 0.960489 -V 0.278319 -T 19.989835
n -t 0.000000 -s 4 -x 4.519654 -y 92.367840 -U 0.907838 -V -0.419322 -T 69.219618
n -t 0.000000 -s 0 -x 42.953580 -y 97.950320 -U 0.822070 -V -0.569386 -T 57.888919
n -t 0.000000 -s 2 -x 54.206410 -y 79.080350 -U 0.998296 -V -0.058359 -T 22.342160
n -t 0.000000 -s 6 -x 49.531330 -y 64.471000 -U -0.687621 -V -0.726070 -T 10.193194
n -t 0.000000 -s 3 -x 36.853910 -y 58.074040 -U -0.171144 -V -0.985246 -T 3.196004
n -t 0.000000 -s 6 -x 49.531330 -y 64.471000 -U 0.000000 -V 0.000000 -T 0.000000
n -t 0.000000 -s 1 -x 29.040760 -y 57.830790 -U 0.000000 -V 0.000000 -T 0.000000
n -t 0.000000 -s 8 -x 22.072540 -y 43.624190 -U 0.000000 -V 0.000000 -T 0.000000
n -t 0.000000 -s 5 -x 11.960340 -y 70.570700 -U 0.000000 -V 0.000000 -T 0.000000
n -t 0.000000 -s 9 -x 27.043920 -y 18.538680 -U 0.000000 -V 0.000000 -T 0.000000
n -t 0.000000 -s 7 -x 2.109065 -y 30.293270 -U 0.000000 -V 0.000000 -T 0.000000
n -t 1.000000 -s 0 -x 43.775650 -y 97.380934 -U 0.000000 -V 0.000000 -T 0.000000
n -t 1.000000 -s 2 -x 55.204706 -y 79.021991 -U 0.000000 -V 0.000000 -T 0.000000
n -t 1.000000 -s 4 -x 5.427492 -y 91.948518 -U 0.000000 -V 0.000000 -T 0.000000
n -t 1.000000 -s 6 -x 49.531330 -y 64.471000 -U 0.000000 -V 0.000000 -T 0.000000
n -t 1.000000 -s 3 -x 36.682766 -y 57.088794 -U 0.000000 -V 0.000000 -T 0.000000
n -t 1.000000 -s 1 -x 29.040760 -y 57.830790 -U 0.000000 -V 0.000000 -T 0.000000
n -t 1.000000 -s 8 -x 22.072540 -y 43.624190 -U 0.000000 -V 0.000000 -T 0.000000
n -t 1.000000 -s 5 -x 11.960340 -y 70.570700 -U 0.000000 -V 0.000000 -T 0.000000
n -t 1.000000 -s 9 -x 27.043920 -y 18.538680 -U 0.000000 -V 0.000000 -T 0.000000
n -t 1.000000 -s 7 -x 2.109065 -y 30.293270 -U 0.000000 -V 0.000000 -T 0.000000
n -t 1.000000 -s 6 -x 49.531330 -y 64.471000 -U 0.184745 -V -0.982787 -T 0.335683
n -t 1.000000 -s 3 -x 36.682766 -y 57.088794 -U -0.171144 -V -0.985246 -T 7.196004
n -t 1.000000 -s 2 -x 55.204706 -y 79.021991 -U 0.993511 -V -0.113736 -T 24.433168
n -t 1.000000 -s 1 -x 29.040760 -y 57.830790 -U 0.712651 -V 0.701518 -T 8.995211
n -t 1.000000 -s 8 -x 22.072540 -y 43.624190 -U -0.118914 -V 0.992905 -T 6.420325
n -t 1.000000 -s 5 -x 11.960340 -y 70.570700 -U 0.823945 -V -0.566669 -T 11.346305
n -t 1.000000 -s 0 -x 43.775650 -y 97.380934 -U 0.819326 -V -0.573328 -T 60.194997
n -t 1.000000 -s 9 -x 27.043920 -y 18.538680 -U 0.436720 -V 0.899598 -T 19.250991
n -t 1.000000 -s 7 -x 2.109065 -y 30.293270 -U 0.960489 -V 0.278319 -T 19.989835
n -t 1.000000 -s 4 -x 5.427492 -y 91.948518 -U 0.895067 -V -0.445931 -T 66.933185
n -t 1.000000 -s 0 -x 43.775650 -y 97.380934 -U 0.819326 -V -0.573328 -T 55.194997
n -t 1.000000 -s 2 -x 55.204706 -y 79.021991 -U 0.993511 -V -0.113736 -T 19.433168
n -t 1.000000 -s 6 -x 49.531330 -y 64.471000 -U -0.687621 -V -0.726070 -T 10.193194
n -t 1.000000 -s 3 -x 36.682766 -y 57.088794 -U 0.133787 -V -0.991010 -T 0.122308
n -t 1.000000 -s 6 -x 49.531330 -y 64.471000 -U 0.000000 -V 0.000000 -T 0.000000
n -t 1.000000 -s 1 -x 29.040760 -y 57.830790 -U 0.000000 -V 0.000000 -T 0.000000
n -t 1.000000 -s 8 -x 22.072540 -y 43.624190 -U 0.000000 -V 0.000000 -T 0.000000
n -t 1.000000 -s 5 -x 11.960340 -y 70.570700 -U 0.000000 -V 0.000000 -T 0.000000
n -t 1.000000 -s 9 -x 27.043920 -y 18.538680 -U 0.000000 -V 0.000000 -T 0.000000
n -t 1.000000 -s 7 -x 2.109065 -y 30.293270 -U 0.000000 -V 0.000000 -T 0.000000
n -t 2.000000 -s 0 -x 44.594976 -y 96.807606 -U 0.000000 -V 0.000000 -T 0.000000
n -t 2.000000 -s 2 -x 56.198217 -y 78.908255 -U 0.000000 -V 0.000000 -T 0.000000
n -t 2.000000 -s 4 -x 6.322559 -y 91.502587 -U 0.000000 -V 0.000000 -T 0.000000
n -t 2.000000 -s 6 -x 49.531330 -y 64.471000 -U 0.000000 -V 0.000000 -T 0.000000
n -t 2.000000 -s 3 -x 36.699129 -y 56.967585 -U 0.000000 -V 0.000000 -T 0.000000
n -t 2.000000 -s 1 -x 29.040760 -y 57.830790 -U 0.000000 -V 0.000000 -T 0.000000
n -t 2.000000 -s 8 -x 22.072540 -y 43.624190 -U 0.000000 -V 0.000000 -T 0.000000
n -t 2.000000 -s 5 -x 11.960340 -y 70.570700 -U 0.000000 -V 0.000000 -T 0.000000
n -t 2.000000 -s 9 -x 27.043920 -y 18.538680 -U 0.000000 -V 0.000000 -T 0.000000
n -t 2.000000 -s 7 -x 2.109065 -y 30.293270 -U 0.000000 -V 0.000000 -T 0.000000
n -t 2.000000 -s 6 -x 49.531330 -y 64.471000 -U 0.184745 -V -0.982787 -T 0.335683
n -t 2.000000 -s 3 -x 36.699129 -y 56.967585 -U -0.176273 -V -0.984341 -T 7.079480
n -t 2.000000 -s 2 -x 56.198217 -y 78.908255 -U 0.983529 -V -0.180751 -T 21.614480
n -t 2.000000 -s 1 -x 29.040760 -y 57.830790 -U 0.712651 -V 0.701518 -T 8.995211
n -t 2.000000 -s 8 -x 22.072540 -y 43.624190 -U -0.118914 -V 0.992905 -T 6.420325
n -t 2.000000 -s 5 -x 11.960340 -y 70.570700 -U 0.823945 -V -0.566669 -T 11.346305
n -t 2.000000 -s 0 -x 44.594976 -y 96.807606 -U 0.816351 -V -0.577556 -T 57.502558
n -t 2.000000 -s 9 -x 27.043920 -y 18.538680 -U 0.436720 -V 0.899598 -T 19.250991
n -t 2.000000 -s 7 -x 2.109065 -y 30.293270 -U 0.960489 -V 0.278319 -T 19.989835
n -t 2.000000 -s 4 -x 6.322559 -y 91.502587 -U 0.880759 -V -0.473564 -T 64.707796
n -t 2.000000 -s 0 -x 44.594976 -y 96.807606 -U 0.816351 -V -0.577556 -T 52.502558
n -t 2.000000 -s 2 -x 56.198217 -y 78.908255 -U 0.983529 -V -0.180751 -T 16.614480
n -t 2.000000 -s 6 -x 49.531330 -y 64.471000 -U -0.687621 -V -0.726070 -T 10.193194
n -t 2.000000 -s 6 -x 49.531330 -y 64.471000 -U 0.000000 -V 0.000000 -T 0.000000
n -t 2.000000 -s 1 -x 29.040760 -y 57.830790 -U 0.000000 -V 0.000000 -T 0.000000
n -t 2.000000 -s 8 -x 22.072540 -y 43.624190 -U 0.000000 -V 0.000000 -T 0.000000
n -t 2.000000 -s 5 -x 11.960340 -y 70.570700 -U 0.000000 -V 0.000000 -T 0.000000
n -t 2.000000 -s 9 -x 27.043920 -y 18.538680 -U 0.000000 -V 0.000000 -T 0.000000
n -t 2.000000 -s 7 -x 2.109065 -y 30.293270 -U 0.000000 -V 0.000000 -T 0.000000
n -t 3.000000 -s 0 -x 45.411327 -y 96.230050 -U 0.000000 -V 0.000000 -T 0.000000
n -t 3.000000 -s 2 -x 57.181746 -y 78.727504 -U 0.000000 -V 0.000000 -T 0.000000
n -t 3.000000 -s 4 -x 7.203318 -y 91.029023 -U 0.000000 -V 0.000000 -T 0.000000
n -t 3.000000 -s 6 -x 49.531330 -y 64.471000 -U 0.000000 -V 0.000000 -T 0.000000
n -t 3.000000 -s 3 -x 36.522856 -y 55.983244 -U 0.000000 -V 0.000000 -T 0.000000
n -t 3.000000 -s 1 -x 29.040760 -y 57.830790 -U 0.000000 -V 0.000000 -T 0.000000
n -t 3.000000 -s 8 -x 22.072540 -y 43.624190 -U 0.000000 -V 0.000000 -T 0.000000
n -t 3.000000 -s 5 -x 11.960340 -y 70.570700 -U 0.000000 -V 0.000000 -T 0.000000
n -t 3.000000 -s 9 -x 27.043920 -y 18.538680 -U 0.000000 -V 0.000000 -T 0.000000
n -t 3.000000 -s 7 -x 2.109065 -y 30.293270 -U 0.000000 -V 0.000000 -T 0.000000
n -t 3.000000 -s 6 -x 49.531330 -y 64.471000 -U 0.184745 -V -0.982787 -T 0.335683
n -t 3.000000 -s 3 -x 36.522856 -y 55.983244 -U -0.176273 -V -0.984341 -T 6.079480
n -t 3.000000 -s 2 -x 57.181746 -y 78.727504 -U 0.964900 -V -0.262617 -T 18.916249
n -t 3.000000 -s 1 -x 29.040760 -y 57.830790 -U 0.712651 -V 0.701518 -T 8.995211
n -t 3.000000 -s 8 -x 22.072540 -y 43.624190 -U -0.118914 -V 0.992905 -T 6.420325
n -t 3.000000 -s 5 -x 11.960340 -y 70.570700 -U 0.823945 -V -0.566669 -T 11.346305
n -t 3.000000 -s 0 -x 45.411327 -y 96.230050 -U 0.813114 -V -0.582105 -T 54.811764
n -t 3.000000 -s 9 -x 27.043920 -y 18.538680 -U 0.436720 -V 0.899598 -T 19.250991
n -t 3.000000 -s 7 -x 2.109065 -y 30.293270 -U 0.960489 -V 0.278319 -T 19.989835
n -t 3.000000 -s 4 -x 7.203318 -y 91.029023 -U 0.864754 -V -0.502197 -T 62.547979
n -t 3.000000 -s 0 -x 45.411327 -y 96.230050 -U 0.813114 -V -0.582105 -T 49.811764
n -t 3.000000 -s 2 -x 57.181746 -y 78.727504 -U 0.964900 -V -0.262617 -T 13.916249
n -t 3.000000 -s 6 -x 49.531330 -y 64.471000 -U -0.687621 -V -0.726070 -T 10.193194
n -t 3.000000 -s 6 -x 49.531330 -y 64.471000 -U 0.000000 -V 0.000000 -T 0.000000
n -t 3.000000 -s 1 -x 29.040760 -y 57.830790 -U 0.000000 -V 0.000000 -T 0.000000
n -t 3.000000 -s 8 -x 22.072540 -y 43.624190 -U 0.000000 -V 0.000000 -T 0.000000
n -t 3.000000 -s 5 -x 11.960340 -y 70.570700 -U 0.000000 -V 0.000000 -T 0.000000
n -t 3.000000 -s 9 -x 27.043920 -y 18.538680 -U 0.000000 -V 0.000000 -T 0.000000
n -t 3.000000 -s 7 -x 2.109065 -y 30.293270 -U 0.000000 -V 0.000000 -T 0.000000
n -t 4.000000 -s 0 -x 46.224441 -y 95.647945 -U 0.000000 -V 0.000000 -T 0.000000
n -t 4.000000 -s 2 -x 58.146646 -y 78.464887 -U 0.000000 -V 0.000000 -T 0.000000
n -t 4.000000 -s 4 -x 8.068072 -y 90.526826 -U 0.000000 -V 0.000000 -T 0.000000
n -t 4.000000 -s 6 -x 49.531330 -y 64.471000 -U 0.000000 -V 0.000000 -T 0.000000
n -t 4.000000 -s 3 -x 36.346584 -y 54.998902 -U 0.000000 -V 0.000000 -T 0.000000
n -t 4.000000 -s 1 -x 29.040760 -y 57.830790 -U 0.000000 -V 0.000000 -T 0.000000
n -t 4.000000 -s 8 -x 22.072540 -y 43.624190 -U 0.000000 -V 0.000000 -T 0.000000
n -t 4.000000 -s 5 -x 11.960340 -y 70.570700 -U 0.000000 -V 0.000000 -T 0.000000
n -t 4.000000 -s 9 -x 27.043920 -y 18.538680 -U 0.000000 -V 0.000000 -T 0.000000
n -t 4.000000 -s 7 -x 2.109065 -y 30.293270 -U 0.000000 -V 0.000000 -T 0.000000
n -t 4.000000 -s 1 -x 29.040760 -y 57.830790 -U -0.277567 -V 0.960706 -T 0.231567
n -t 4.000000 -s 3 -x 36.346584 -y 54.998902 -U 0.911572 -V 0.411141 -T 7.428968
n -t 4.000000 -s 2 -x 58.146646 -y 78.464887 -U -0.139912 -V -0.990164 -T 6.331773
n -t 4.000000 -s 6 -x 49.531330 -y 64.471000 -U 0.847654 -V -0.530549 -T 11.488088
n -t 4.000000 -s 0 -x 46.224441 -y 95.647945 -U 0.761650 -V -0.647988 -T 35.694791
n -t 4.000000 -s 8 -x 22.072540 -y 43.624190 -U 0.999137 -V 0.041525 -T 6.909905
n -t 4.000000 -s 5 -x 11.960340 -y 70.570700 -U 0.995473 -V 0.095047 -T 17.093531
n -t 4.000000 -s 9 -x 27.043920 -y 18.538680 -U 0.797005 -V 0.603973 -T 77.010680
n -t 4.000000 -s 4 -x 8.068072 -y 90.526826 -U 0.886126 -V -0.463444 -T 39.554802
n -t 4.000000 -s 7 -x 2.109065 -y 30.293270 -U 0.827865 -V 0.560928 -T 87.176816
n -t 4.000000 -s 9 -x 27.043920 -y 18.538680 -U 0.797005 -V 0.603973 -T 72.010680
n -t 4.000000 -s 6 -x 49.531330 -y 64.471000 -U 0.947641 -V 0.319338 -T 20.199486
n -t 4.000000 -s 2 -x 58.146646 -y 78.464887 -U -0.512251 -V -0.858836 -T 15.533311
n -t 4.000000 -s 3 -x 36.346584 -y 54.998902 -U 0.911572 -V 0.411141 -T 2.428968
n -t 4.000000 -s 1 -x 29.040760 -y 57.830790 -U 0.000000 -V 0.000000 -T 0.000000
n -t 4.000000 -s 2 -x 58.146646 -y 78.464887 -U 0.000000 -V 0.000000 -T 0.000000
n -t 4.000000 -s 8 -x 22.072540 -y 43.624190 -U 0.000000 -V 0.000000 -T 0.000000
n -t 4.000000 -s 5 -x 11.960340 -y 70.570700 -U 0.000000 -V 0.000000 -T 0.000000
n -t 4.000000 -s 4 -x 8.068072 -y 90.526826 -U 0.000000 -V 0.000000 -T 0.000000
n -t 5.000000 -s 9 -x 27.840925 -y 19.142653 -U 0.000000 -V 0.000000 -T 0.000000
n -t 5.000000 -s 7 -x 2.936930 -y 30.854198 -U 0.000000 -V 0.000000 -T 0.000000
n -t 5.000000 -s 6 -x 50.478971 -y 64.790338 -U 0.000000 -V 0.000000 -T 0.000000
n -t 5.000000 -s 0 -x 46.986092 -y 94.999957 -U 0.000000 -V 0.000000 -T 0.000000
n -t 5.000000 -s 1 -x 29.040760 -y 57.830790 -U 0.000000 -V 0.000000 -T 0.000000
n -t 5.000000 -s 3 -x 37.258155 -y 55.410044 -U 0.000000 -V 0.000000 -T 0.000000
n -t 5.000000 -s 2 -x 58.146646 -y 78.464887 -U 0.000000 -V 0.000000 -T 0.000000
n -t 5.000000 -s 8 -x 22.072540 -y 43.624190 -U 0.000000 -V 0.000000 -T 0.000000
n -t 5.000000 -s 5 -x 11.960340 -y 70.570700 -U 0.000000 -V 0.000000 -T 0.000000
n -t 5.000000 -s 4 -x 8.068072 -y 90.526826 -U 0.000000 -V 0.000000 -T 0.000000
n -t 5.000000 -s 1 -x 29.040760 -y 57.830790 -U -0.277567 -V 0.960706 -T 0.231567
n -t 5.000000 -s 3 -x 37.258155 -y 55.410044 -U 0.911572 -V 0.411141 -T 6.428968
n -t 5.000000 -s 2 -x 58.146646 -y 78.464887 -U -0.139912 -V -0.990164 -T 6.331773
n -t 5.000000 -s 6 -x 50.478971 -y 64.790338 -U 0.662303 -V -0.749236 -T 10.218356
n -t 5.000000 -s 0 -x 46.986092 -y 94.999957 -U 0.717015 -V -0.697058 -T 34.033686
n -t 5.000000 -s 8 -x 22.072540 -y 43.624190 -U 0.999137 -V 0.041525 -T 6.909905
n -t 5.000000 -s 5 -x 11.960340 -y 70.570700 -U 0.995473 -V 0.095047 -T 17.093531
n -t 5.000000 -s 9 -x 27.840925 -y 19.142653 -U 0.784635 -V 0.619959 -T 75.223740
n -t 5.000000 -s 4 -x 8.068072 -y 90.526826 -U 0.886126 -V -0.463444 -T 39.554802
n -t 5.000000 -s 7 -x 2.936930 -y 30.854198 -U 0.818037 -V 0.575166 -T 85.307903
n -t 5.000000 -s 9 -x 27.840925 -y 19.142653 -U 0.784635 -V 0.619959 -T 70.223740
n -t 5.000000 -s 6 -x 50.478971 -y 64.790338 -U 0.955104 -V 0.296271 -T 16.892678
n -t 5.000000 -s 2 -x 58.146646 -y 78.464887 -U -0.512251 -V -0.858836 -T 15.533311
n -t 5.000000 -s 3 -x 37.258155 -y 55.410044 -U 0.857960 -V 0.513717 -T 4.064897
n -t 5.000000 -s 1 -x 29.040760 -y 57.830790 -U 0.000000 -V 0.000000 -T 0.000000
n -t 5.000000 -s 2 -x 58.146646 -y 78.464887 -U 0.000000 -V 0.000000 -T 0.000000
n -t 5.000000 -s 8 -x 22.072540 -y 43.624190 -U 0.000000 -V 0.000000 -T 0.000000
n -t 5.000000 -s 5 -x 11.960340 -y 70.570700 -U 0.000000 -V 0.000000 -T 0.000000
n -t 5.000000 -s 4 -x 8.068072 -y 90.526826 -U 0.000000 -V 0.000000 -T 0.000000
n -t 6.000000 -s 9 -x 28.625559 -y 19.762612 -U 0.000000 -V 0.000000 -T 0.000000
n -t 6.000000 -s 7 -x 3.754966 -y 31.429364 -U 0.000000 -V 0.000000 -T 0.000000
n -t 6.000000 -s 6 -x 51.434075 -y 65.086609 -U 0.000000 -V 0.000000 -T 0.000000
n -t 6.000000 -s 0 -x 47.703106 -y 94.302899 -U 0.000000 -V 0.000000 -T 0.000000
n -t 6.000000 -s 1 -x 29.040760 -y 57.830790 -U 0.000000 -V 0.000000 -T 0.000000
n -t 6.000000 -s 3 -x 38.116115 -y 55.923760 -U 0.000000 -V 0.000000 -T 0.000000
n -t 6.000000 -s 2 -x 58.146646 -y 78.464887 -U 0.000000 -V 0.000000 -T 0.000000
n -t 6.000000 -s 8 -x 22.072540 -y 43.624190 -U 0.000000 -V 0.000000 -T 0.000000
n -t 6.000000 -s 5 -x 11.960340 -y 70.570700 -U 0.000000 -V 0.000000 -T 0.000000
n -t 6.000000 -s 4 -x 8.068072 -y 90.526826 -U 0.000000 -V 0.000000 -T 0.000000
n -t 6.000000 -s 1 -x 29.040760 -y 57.830790 -U -0.277567 -V 0.960706 -T 0.231567
n -t 6.000000 -s 3 -x 38.116115 -y 55.923760 -U 0.920103 -V 0.391675 -T 5.436894
n -t 6.000000 -s 2 -x 58.146646 -y 78.464887 -U -0.139912 -V -0.990164 -T 6.331773
n -t 6.000000 -s 6 -x 51.434075 -y 65.086609 -U 0.963972 -V 0.266004 -T 18.602235
n -t 6.000000 -s 8 -x 22.072540 -y 43.624190 -U 0.999137 -V 0.041525 -T 6.909905
n -t 6.000000 -s 0 -x 47.703106 -y 94.302899 -U 0.804138 -V -0.594443 -T 46.762186
n -t 6.000000 -s 5 -x 11.960340 -y 70.570700 -U 0.995473 -V 0.095047 -T 17.093531
n -t 6.000000 -s 9 -x 28.625559 -y 19.762612 -U 0.592855 -V 0.805309 -T 44.864926
n -t 6.000000 -s 4 -x 8.068072 -y 90.526826 -U 0.886126 -V -0.463444 -T 39.554802
n -t 6.000000 -s 7 -x 3.754966 -y 31.429364 -U 0.807633 -V 0.589686 -T 83.465201
n -t 6.000000 -s 0 -x 47.703106 -y 94.302899 -U 0.804138 -V -0.594443 -T 41.762186
n -t 6.000000 -s 6 -x 51.434075 -y 65.086609 -U 0.963972 -V 0.266004 -T 13.602235
n -t 6.000000 -s 2 -x 58.146646 -y 78.464887 -U -0.512251 -V -0.858836 -T 15.533311
n -t 6.000000 -s 3 -x 38.116115 -y 55.923760 -U 0.820482 -V 0.571672 -T 5.769536
n -t 7.000000 -s 0 -x 48.507244 -y 93.708456 -U 0.000000 -V 0.000000 -T 0.000000
n -t 7.000000 -s 7 -x 4.562599 -y 32.019049 -U 0.000000 -V 0.000000 -T 0.000000
n -t 7.000000 -s 6 -x 52.398047 -y 65.352613 -U 0.000000 -V 0.000000 -T 0.000000
n -t 7.000000 -s 9 -x 29.218415 -y 20.567920 -U 0.000000 -V 0.000000 -T 0.000000
n -t 7.000000 -s 1 -x 28.976485 -y 58.053258 -U 0.000000 -V 0.000000 -T 0.000000
n -t 7.000000 -s 3 -x 38.936597 -y 56.495433 -U 0.000000 -V 0.000000 -T 0.000000
n -t 7.000000 -s 2 -x 57.634395 -y 77.606052 -U 0.000000 -V 0.000000 -T 0.000000
n -t 7.000000 -s 8 -x 23.071677 -y 43.665715 -U 0.000000 -V 0.000000 -T 0.000000
n -t 7.000000 -s 5 -x 12.955813 -y 70.665747 -U 0.000000 -V 0.000000 -T 0.000000
n -t 7.000000 -s 4 -x 8.954198 -y 90.063382 -U 0.000000 -V 0.000000 -T 0.000000
n -t 7.000000 -s 6 -x 52.398047 -y 65.352613 -U -0.941884 -V -0.335939 -T 3.746608
n -t 7.000000 -s 2 -x 57.634395 -y 77.606052 -U 0.993204 -V 0.116383 -T 5.413708
n -t 7.000000 -s 3 -x 38.936597 -y 56.495433 -U 0.991745 -V -0.128226 -T 14.383467
n -t 7.000000 -s 0 -x 48.507244 -y 93.708456 -U 0.603065 -V -0.797692 -T 31.234137
n -t 7.000000 -s 1 -x 28.976485 -y 58.053258 -U 0.689497 -V 0.724288 -T 8.340219
n -t 7.000000 -s 8 -x 23.071677 -y 43.665715 -U 0.932158 -V 0.362050 -T 65.092949
n -t 7.000000 -s 5 -x 12.955813 -y 70.665747 -U 0.944527 -V 0.328434 -T 23.049879
n -t 7.000000 -s 4 -x 8.954198 -y 90.063382 -U 0.989895 -V -0.141805 -T 61.271461
n -t 7.000000 -s 9 -x 29.218415 -y 20.567920 -U 0.745520 -V 0.666483 -T 51.138857
n -t 7.000000 -s 7 -x 4.562599 -y 32.019049 -U 0.797671 -V 0.603093 -T 60.975954
n -t 7.000000 -s 8 -x 23.071677 -y 43.665715 -U 0.932158 -V 0.362050 -T 60.092949
n -t 7.000000 -s 3 -x 38.936597 -y 56.495433 -U 0.917695 -V 0.397285 -T 25.954581
n -t 7.000000 -s 2 -x 57.634395 -y 77.606052 -U -0.254374 -V -0.967106 -T 6.660079
n -t 7.000000 -s 2 -x 57.634395 -y 77.606052 -U 0.000000 -V 0.000000 -T 0.000000
n -t 7.000000 -s 1 -x 28.976485 -y 58.053258 -U 0.000000 -V 0.000000 -T 0.000000
n -t 7.000000 -s 5 -x 12.955813 -y 70.665747 -U 0.000000 -V 0.000000 -T 0.000000
n -t 8.000000 -s 8 -x 24.003836 -y 44.027765 -U 0.000000 -V 0.000000 -T 0.000000
n -t 8.000000 -s 4 -x 9.944093 -y 89.921577 -U 0.000000 -V 0.000000 -T 0.000000
n -t 8.000000 -s 3 -x 39.854292 -y 56.892718 -U 0.000000 -V 0.000000 -T 0.000000
n -t 8.000000 -s 0 -x 49.110309 -y 92.910764 -U 0.000000 -V 0.000000 -T 0.000000
n -t 8.000000 -s 9 -x 29.963935 -y 21.234404 -U 0.000000 -V 0.000000 -T 0.000000
n -t 8.000000 -s 7 -x 5.360270 -y 32.622143 -U 0.000000 -V 0.000000 -T 0.000000
n -t 8.000000 -s 6 -x 51.456163 -y 65.016674 -U 0.000000 -V 0.000000 -T 0.000000
n -t 8.000000 -s 2 -x 57.634395 -y 77.606052 -U 0.000000 -V 0.000000 -T 0.000000
n -t 8.000000 -s 1 -x 28.976485 -y 58.053258 -U 0.000000 -V 0.000000 -T 0.000000
n -t 8.000000 -s 5 -x 12.955813 -y 70.665747 -U 0.000000 -V 0.000000 -T 0.000000
n -t 8.000000 -s 6 -x 51.456163 -y 65.016674 -U -0.941884 -V -0.335939 -T 2.746608
n -t 8.000000 -s 2 -x 57.634395 -y 77.606052 -U 0.993204 -V 0.116383 -T 5.413708
n -t 8.000000 -s 3 -x 39.854292 -y 56.892718 -U 0.955807 -V -0.293995 -T 11.847992
n -t 8.000000 -s 0 -x 49.110309 -y 92.910764 -U 0.538597 -V -0.842563 -T 30.097638
n -t 8.000000 -s 1 -x 28.976485 -y 58.053258 -U 0.689497 -V 0.724288 -T 8.340219
n -t 8.000000 -s 8 -x 24.003836 -y 44.027765 -U 0.924831 -V 0.380379 -T 62.916441
n -t 8.000000 -s 5 -x 12.955813 -y 70.665747 -U 0.944527 -V 0.328434 -T 23.049879
n -t 8.000000 -s 4 -x 9.944093 -y 89.921577 -U 0.991066 -V -0.133375 -T 58.628480
n -t 8.000000 -s 9 -x 29.963935 -y 21.234404 -U 0.739602 -V 0.673044 -T 47.805272
n -t 8.000000 -s 7 -x 5.360270 -y 32.622143 -U 0.795263 -V 0.606265 -T 57.614184
n -t 8.000000 -s 8 -x 24.003836 -y 44.027765 -U 0.924831 -V 0.380379 -T 57.916441
n -t 8.000000 -s 3 -x 39.854292 -y 56.892718 -U 0.922461 -V 0.386091 -T 22.607171
n -t 8.000000 -s 2 -x 57.634395 -y 77.606052 -U -0.254374 -V -0.967106 -T 6.660079
n -t 8.000000 -s 2 -x 57.634395 -y 77.606052 -U 0.000000 -V 0.000000 -T 0.000000
n -t 8.000000 -s 1 -x 28.976485 -y 58.053258 -U 0.000000 -V 0.000000 -T 0.000000
n -t 8.000000 -s 5 -x 12.955813 -y 70.665747 -U 0.000000 -V 0.000000 -T 0.000000
n -t 9.000000 -s 8 -x 24.928667 -y 44.408144 -U 0.000000 -V 0.000000 -T 0.000000
n -t 9.000000 -s 4 -x 10.935158 -y 89.788202 -U 0.000000 -V 0.000000 -T 0.000000
n -t 9.000000 -s 3 -x 40.776753 -y 57.278809 -U 0.000000 -V 0.000000 -T 0.000000
n -t 9.000000 -s 0 -x 49.648907 -y 92.068201 -U 0.000000 -V 0.000000 -T 0.000000
n -t 9.000000 -s 9 -x 30.703537 -y 21.907448 -U 0.000000 -V 0.000000 -T 0.000000
n -t 9.000000 -s 7 -x 6.155533 -y 33.228408 -U 0.000000 -V 0.000000 -T 0.000000
n -t 9.000000 -s 6 -x 50.514279 -y 64.680735 -U 0.000000 -V 0.000000 -T 0.000000
n -t 9.000000 -s 2 -x 57.634395 -y 77.606052 -U 0.000000 -V 0.000000 -T 0.000000
n -t 9.000000 -s 1 -x 28.976485 -y 58.053258 -U 0.000000 -V 0.000000 -T 0.000000
n -t 9.000000 -s 5 -x 12.955813 -y 70.665747 -U 0.000000 -V 0.000000 -T 0.000000
n -t 9.000000 -s 6 -x 50.514279 -y 64.680735 -U -0.941884 -V -0.335939 -T 1.746608
n -t 9.000000 -s 2 -x 57.634395 -y 77.606052 -U 0.993204 -V 0.116383 -T 5.413708
n -t 9.000000 -s 3 -x 40.776753 -y 57.278809 -U 0.853721 -V -0.520730 -T 9.815018
n -t 9.000000 -s 0 -x 49.648907 -y 92.068201 -U 0.468224 -V -0.883610 -T 29.151145
n -t 9.000000 -s 1 -x 28.976485 -y 58.053258 -U 0.689497 -V 0.724288 -T 8.340219
n -t 9.000000 -s 8 -x 24.928667 -y 44.408144 -U 0.916711 -V 0.399550 -T 60.765590
n -t 9.000000 -s 5 -x 12.955813 -y 70.665747 -U 0.944527 -V 0.328434 -T 23.049879
n -t 9.000000 -s 4 -x 10.935158 -y 89.788202 -U 0.992246 -V -0.124290 -T 55.990031
n -t 9.000000 -s 9 -x 30.703537 -y 21.907448 -U 0.732862 -V 0.680378 -T 44.475850
n -t 9.000000 -s 7 -x 6.155533 -y 33.228408 -U 0.792586 -V 0.609760 -T 54.253417
n -t 9.000000 -s 8 -x 24.928667 -y 44.408144 -U 0.916711 -V 0.399550 -T 55.765590
n -t 9.000000 -s 3 -x 40.776753 -y 57.278809 -U 0.928155 -V 0.372193 -T 19.264714
n -t 9.000000 -s 2 -x 57.634395 -y 77.606052 -U -0.254374 -V -0.967106 -T 6.660079
n -t 9.000000 -s 2 -x 57.634395 -y 77.606052 -U 0.000000 -V 0.000000 -T 0.000000
n -t 9.000000 -s 1 -x 28.976485 -y 58.053258 -U 0.000000 -V 0.000000 -T 0.000000
n -t 9.000000 -s 5 -x 12.955813 -y 70.665747 -U 0.000000 -V 0.000000 -T 0.000000
n -t 10.000000 -s 8 -x 25.845378 -y 44.807694 -U 0.000000 -V 0.000000 -T 0.000000
n -t 10.000000 -s 4 -x 11.927404 -y 89.663912 -U 0.000000 -V 0.000000 -T 0.000000
n -t 10.000000 -s 3 -x 41.704908 -y 57.651002 -U 0.000000 -V 0.000000 -T 0.000000
n -t 10.000000 -s 0 -x 50.117131 -y 91.184592 -U 0.000000 -V 0.000000 -T 0.000000
n -t 10.000000 -s 9 -x 31.436399 -y 22.587826 -U 0.000000 -V 0.000000 -T 0.000000
n -t 10.000000 -s 7 -x 6.948119 -y 33.838167 -U 0.000000 -V 0.000000 -T 0.000000
n -t 10.000000 -s 6 -x 49.572395 -y 64.344796 -U 0.000000 -V 0.000000 -T 0.000000
n -t 10.000000 -s 2 -x 57.634395 -y 77.606052 -U 0.000000 -V 0.000000 -T 0.000000
n -t 10.000000 -s 1 -x 28.976485 -y 58.053258 -U 0.000000 -V 0.000000 -T 0.000000
n -t 10.000000 -s 5 -x 12.955813 -y 70.665747 -U 0.000000 -V 0.000000 -T 0.000000
n -t 10.000000 -s 6 -x 49.572395 -y 64.344796 -U -0.941884 -V -0.335939 -T 0.746608
n -t 10.000000 -s 2 -x 57.634395 -y 77.606052 -U 0.993204 -V 0.116383 -T 5.413708
n -t 10.000000 -s 3 -x 41.704908 -y 57.651002 -U 0.628121 -V -0.778116 -T 8.642427
n -t 10.000000 -s 0 -x 50.117131 -y 91.184592 -U 0.392899 -V -0.919582 -T 28.400160
n -t 10.000000 -s 1 -x 28.976485 -y 58.053258 -U 0.689497 -V 0.724288 -T 8.340219
n -t 10.000000 -s 8 -x 25.845378 -y 44.807694 -U 0.907707 -V 0.419604 -T 58.642326
n -t 10.000000 -s 5 -x 12.955813 -y 70.665747 -U 0.944527 -V 0.328434 -T 23.049879
n -t 10.000000 -s 4 -x 11.927404 -y 89.663912 -U 0.993427 -V -0.114466 -T 53.356613
n -t 10.000000 -s 9 -x 31.436399 -y 22.587826 -U 0.725106 -V 0.688637 -T 41.151392
n -t 10.000000 -s 7 -x 6.948119 -y 33.838167 -U 0.789591 -V 0.613634 -T 50.893808
n -t 10.000000 -s 8 -x 25.845378 -y 44.807694 -U 0.907707 -V 0.419604 -T 53.642326
n -t 10.000000 -s 3 -x 41.704908 -y 57.651002 -U 0.999617 -V 0.027691 -T 12.504352
n -t 10.000000 -s 3 -x 41.704908 -y 57.651002 -U 0.935093 -V 0.354403 -T 15.929073
n -t 10.000000 -s 2 -x 57.634395 -y 77.606052 -U -0.254374 -V -0.967106 -T 6.660079
n -t 10.000000 -s 6 -x 49.572395 -y 64.344796 -U 0.657115 -V 0.753790 -T 2.681060
n -t 10.000000 -s 2 -x 57.634395 -y 77.606052 -U 0.000000 -V 0.000000 -T 0.000000
n -t 10.000000 -s 1 -x 28.976485 -y 58.053258 -U 0.000000 -V 0.000000 -T 0.000000
n -t 10.000000 -s 5 -x 12.955813 -y 70.665747 -U 0.000000 -V 0.000000 -T 0.000000
n -t 11.000000 -s 8 -x 26.753085 -y 45.227298 -U 0.000000 -V 0.000000 -T 0.000000
n -t 11.000000 -s 4 -x 12.920831 -y 89.549445 -U 0.000000 -V 0.000000 -T 0.000000
n -t 11.000000 -s 3 -x 42.640001 -y 58.005405 -U 0.000000 -V 0.000000 -T 0.000000
n -t 11.000000 -s 0 -x 50.510030 -y 90.265010 -U 0.000000 -V 0.000000 -T 0.000000
n -t 11.000000 -s 9 -x 32.161505 -y 23.276463 -U 0.000000 -V 0.000000 -T 0.000000
n -t 11.000000 -s 7 -x 7.737710 -y 34.451801 -U 0.000000 -V 0.000000 -T 0.000000
n -t 11.000000 -s 6 -x 50.229511 -y 65.098586 -U 0.000000 -V 0.000000 -T 0.000000
n -t 11.000000 -s 2 -x 57.634395 -y 77.606052 -U 0.000000 -V 0.000000 -T 0.000000
n -t 11.000000 -s 1 -x 28.976485 -y 58.053258 -U 0.000000 -V 0.000000 -T 0.000000
n -t 11.000000 -s 5 -x 12.955813 -y 70.665747 -U 0.000000 -V 0.000000 -T 0.000000
n -t 11.000000 -s 3 -x 42.640001 -y 58.005405 -U -0.999995 -V 0.003007 -T 0.245550
n -t 11.000000 -s 2 -x 57.634395 -y 77.606052 -U -0.197196 -V -0.980364 -T 5.567087
n -t 11.000000 -s 6 -x 50.229511 -y 65.098586 -U 0.990211 -V -0.139576 -T 9.112578
n -t 11.000000 -s 0 -x 50.510030 -y 90.265010 -U 0.834796 -V -0.550559 -T 7.219197
n -t 11.000000 -s 1 -x 28.976485 -y 58.053258 -U 0.887692 -V -0.460438 -T 18.175527
n -t 11.000000 -s 8 -x 26.753085 -y 45.227298 -U 0.897714 -V 0.440578 -T 56.548764
n -t 11.000000 -s 5 -x 12.955813 -y 70.665747 -U 0.978121 -V -0.208037 -T 32.874198
n -t 11.000000 -s 4 -x 12.920831 -y 89.549445 -U 0.994598 -V -0.103804 -T 50.728805
n -t 11.000000 -s 9 -x 32.161505 -y 23.276463 -U 0.716079 -V 0.698019 -T 37.832930
n -t 11.000000 -s 7 -x 7.737710 -y 34.451801 -U 0.771901 -V 0.635743 -T 81.540254
n -t 11.000000 -s 8 -x 26.753085 -y 45.227298 -U 0.897714 -V 0.440578 -T 51.548764
n -t 11.000000 -s 6 -x 50.229511 -y 65.098586 -U 0.990211 -V -0.139576 -T 4.112578
n -t 11.000000 -s 1 -x 28.976485 -y 58.053258 -U 0.000000 -V 0.000000 -T 0.000000
n -t 11.000000 -s 5 -x 12.955813 -y 70.665747 -U 0.000000 -V 0.000000 -T 0.000000
n -t 11.000000 -s 9 -x 32.161505 -y 23.276463 -U 0.000000 -V 0.000000 -T 0.000000
n -t 11.000000 -s 2 -x 57.634395 -y 77.606052 -U -0.197196 -V -0.980364 -T 0.567087
n -t 11.000000 -s 3 -x 42.640001 -y 58.005405 -U 0.000000 -V 0.000000 -T 0.000000
n -t 11.000000 -s 0 -x 50.510030 -y 90.265010 -U 0.000000 -V 0.000000 -T 0.000000
n -t 11.000000 -s 7 -x 7.737710 -y 34.451801 -U 0.000000 -V 0.000000 -T 0.000000
n -t 12.000000 -s 8 -x 27.650800 -y 45.667876 -U 0.000000 -V 0.000000 -T 0.000000
n -t 12.000000 -s 4 -x 13.915429 -y 89.445641 -U 0.000000 -V 0.000000 -T 0.000000
n -t 12.000000 -s 6 -x 51.219722 -y 64.959011 -U 0.000000 -V 0.000000 -T 0.000000
n -t 12.000000 -s 1 -x 28.976485 -y 58.053258 -U 0.000000 -V 0.000000 -T 0.000000
n -t 12.000000 -s 5 -x 12.955813 -y 70.665747 -U 0.000000 -V 0.000000 -T 0.000000
n -t 12.000000 -s 9 -x 32.161505 -y 23.276463 -U 0.000000 -V 0.000000 -T 0.000000
n -t 12.000000 -s 3 -x 42.640001 -y 58.005405 -U 0.000000 -V 0.000000 -T 0.000000
n -t 12.000000 -s 2 -x 57.522567 -y 77.050100 -U 0.000000 -V 0.000000 -T 0.000000
n -t 12.000000 -s 0 -x 50.510030 -y 90.265010 -U 0.000000 -V 0.000000 -T 0.000000
n -t 12.000000 -s 7 -x 7.737710 -y 34.451801 -U 0.000000 -V 0.000000 -T 0.000000
n -t 12.000000 -s 3 -x 42.640001 -y 58.005405 -U -0.999995 -V 0.003007 -T 0.245550
n -t 12.000000 -s 2 -x 57.522567 -y 77.050100 -U -0.197196 -V -0.980364 -T 5.000000
n -t 12.000000 -s 6 -x 51.219722 -y 64.959011 -U 0.990211 -V -0.139576 -T 8.112578
n -t 12.000000 -s 0 -x 50.510030 -y 90.265010 -U 0.834796 -V -0.550559 -T 7.219197
n -t 12.000000 -s 8 -x 27.650800 -y 45.667876 -U 0.974544 -V 0.224195 -T 17.916019
n -t 12.000000 -s 1 -x 28.976485 -y 58.053258 -U 0.964755 -V 0.263150 -T 48.699942
n -t 12.000000 -s 4 -x 13.915429 -y 89.445641 -U 0.995742 -V -0.092187 -T 48.107286
n -t 12.000000 -s 5 -x 12.955813 -y 70.665747 -U 0.978121 -V -0.208037 -T 32.874198
n -t 12.000000 -s 9 -x 32.161505 -y 23.276463 -U 0.716079 -V 0.698019 -T 37.832930
n -t 12.000000 -s 7 -x 7.737710 -y 34.451801 -U 0.771901 -V 0.635743 -T 81.540254
n -t 12.000000 -s 1 -x 28.976485 -y 58.053258 -U 0.964755 -V 0.263150 -T 43.699942
n -t 12.000000 -s 6 -x 51.219722 -y 64.959011 -U 0.930082 -V -0.367351 -T 1.462357