n -t * -s 0  -x 2.523587 -y 49.802720000000001 -Z 0 -z 1  -v circle -c black
n -t * -s 1  -x 25.108440000000002 -y 3.9674740000000002 -Z 0 -z 1  -v circle -c black
n -t * -s 2  -x 87.144019999999998 -y 5.1743980000000001 -Z 0 -z 1  -v circle -c black
n -t * -s 3  -x 23.05096 -y 83.272059999999996 -Z 0 -z 1  -v circle -c black
n -t * -s 4  -x 60.049529999999997 -y 10.780720000000001 -Z 0 -z 1  -v circle -c black
n -t * -s 5  -x 8.5450710000000001 -y 3.5643359999999999 -Z 0 -z 1  -v circle -c black
n -t * -s 6  -x 0.85085580000000005 -y 60.541040000000002 -Z 0 -z 1  -v circle -c black
n -t * -s 7  -x 82.840190000000007 -y 77.294240000000002 -Z 0 -z 1  -v circle -c black
n -t * -s 8  -x 38.165239999999997 -y 56.732460000000003 -Z 0 -z 1  -v circle -c black
n -t * -s 9  -x 68.792860000000005 -y 97.165959999999998 -Z 0 -z 1  -v circle -c black
n -t * -s 10  -x 73.348479999999995 -y 37.752980000000001 -Z 0 -z 2  -v circle -c black
n -t * -s 11  -x 99.272270000000006 -y 63.726900000000001 -Z 0 -z 2  -v circle -c black
n -t * -s 12  -x 70.421430000000001 -y 89.93365 -Z 0 -z 2  -v circle -c black
V -t * -v 1.0a5 -a 0
W -t * -x 100 -y 100
A -t * -n 1 -p 0 -o 0x7fffffff -c 30 -a 1
A -t * -h 1 -m 1073741823 -s 0
n -t 0 -s 10 -S COLOR -c red -o black -i red -I black
n -t 0 -s 11 -S COLOR -c red -o black -i red -I black
n -t 0 -s 12 -S COLOR -c red -o black -i red -I black
n -t 0.000000 -s 10 -x 73.348480 -y 37.752980 -U 0.183014 -V -2.515262 -T 7.367560
n -t 0.000000 -s 11 -x 99.272270 -y 63.726900 -U -0.663572 -V -0.289210 -T 112.639956
n -t 0.000000 -s 12 -x 70.421430 -y 89.933650 -U 0.625323 -V -2.219537 -T 31.495178
n -t 0.000000 -s 9 -x 68.792860 -y 97.165960 -U 0.219679 -V -0.975572 -T 7.413403
n -t 0.000000 -s 7 -x 82.840190 -y 77.294240 -U 0.771123 -V -0.636687 -T 21.309293
n -t 0.000000 -s 4 -x 60.049530 -y 10.780720 -U 0.442227 -V 0.896903 -T 30.072660
n -t 0.000000 -s 2 -x 87.144020 -y 5.174398 -U -0.599116 -V 0.800662 -T 23.026495
n -t 0.000000 -s 8 -x 38.165240 -y 56.732460 -U 0.860943 -V 0.508701 -T 37.466109
n -t 0.000000 -s 4 -x 60.049530 -y 10.780720 -U 0.442227 -V 0.896903 -T 25.072660
n -t 0.000000 -s 7 -x 82.840190 -y 77.294240 -U 0.771123 -V -0.636687 -T 16.309293
n -t 0.000000 -s 9 -x 68.792860 -y 97.165960 -U 0.219679 -V -0.975572 -T 2.413403
n -t 0.000000 -s 8 -x 38.165240 -y 56.732460 -U 0.000000 -V 0.000000 -T 0.000000
n -t 1.000000 -s 4 -x 60.491757 -y 11.677623 -U 0.000000 -V 0.000000 -T 0.000000
n -t 1.000000 -s 2 -x 86.544904 -y 5.975060 -U 0.000000 -V 0.000000 -T 0.000000
n -t 1.000000 -s 7 -x 83.611313 -y 76.657553 -U 0.000000 -V 0.000000 -T 0.000000
n -t 1.000000 -s 9 -x 69.012539 -y 96.190388 -U 0.000000 -V 0.000000 -T 0.000000
n -t 1.000000 -s 8 -x 38.165240 -y 56.732460 -U 0.000000 -V 0.000000 -T 0.000000
n -t 1.000000 -s 9 -x 69.012539 -y 96.190388 -U 0.219679 -V -0.975572 -T 6.413403
n -t 1.000000 -s 7 -x 83.611313 -y 76.657553 -U 0.750163 -V -0.661252 -T 19.992158
n -t 1.000000 -s 4 -x 60.491757 -y 11.677623 -U 0.484246 -V 0.874932 -T 26.927919
n -t 1.000000 -s 2 -x 86.544904 -y 5.975060 -U -0.652320 -V 0.757943 -T 19.949412
n -t 1.000000 -s 8 -x 38.165240 -y 56.732460 -U 0.860943 -V 0.508701 -T 37.466109
n -t 1.000000 -s 4 -x 60.491757 -y 11.677623 -U 0.484246 -V 0.874932 -T 21.927919
n -t 1.000000 -s 7 -x 83.611313 -y 76.657553 -U 0.750163 -V -0.661252 -T 14.992158
n -t 1.000000 -s 9 -x 69.012539 -y 96.190388 -U 0.233363 -V -0.972390 -T 3.716952
n -t 1.000000 -s 8 -x 38.165240 -y 56.732460 -U 0.000000 -V 0.000000 -T 0.000000
n -t 2.000000 -s 4 -x 60.976003 -y 12.552555 -U 0.000000 -V 0.000000 -T 0.000000
n -t 2.000000 -s 2 -x 85.892584 -y 6.733004 -U 0.000000 -V 0.000000 -T 0.000000
n -t 2.000000 -s 7 -x 84.361476 -y 75.996301 -U 0.000000 -V 0.000000 -T 0.000000
n -t 2.000000 -s 9 -x 69.245902 -y 95.217998 -U 0.000000 -V 0.000000 -T 0.000000
n -t 2.000000 -s 8 -x 38.165240 -y 56.732460 -U 0.000000 -V 0.000000 -T 0.000000
n -t 2.000000 -s 9 -x 69.245902 -y 95.217998 -U 0.217147 -V -0.976139 -T 5.413520
n -t 2.000000 -s 7 -x 84.361476 -y 75.996301 -U 0.726511 -V -0.687155 -T 18.697114
n -t 2.000000 -s 4 -x 60.976003 -y 12.552555 -U 0.533982 -V 0.845496 -T 23.855701
n -t 2.000000 -s 2 -x 85.892584 -y 6.733004 -U -0.716774 -V 0.697306 -T 16.990128
n -t 2.000000 -s 4 -x 60.976003 -y 12.552555 -U 0.533982 -V 0.845496 -T 18.855701
n -t 2.000000 -s 7 -x 84.361476 -y 75.996301 -U 0.726511 -V -0.687155 -T 13.697114
n -t 2.000000 -s 9 -x 69.245902 -y 95.217998 -U 0.242096 -V -0.970252 -T 5.021540
n -t 3.000000 -s 4 -x 61.509985 -y 13.398051 -U 0.000000 -V 0.000000 -T 0.000000
n -t 3.000000 -s 2 -x 85.175810 -y 7.430310 -U 0.000000 -V 0.000000 -T 0.000000
n -t 3.000000 -s 7 -x 85.087987 -y 75.309146 -U 0.000000 -V 0.000000 -T 0.000000
n -t 3.000000 -s 9 -x 69.487998 -y 94.247746 -U 0.000000 -V 0.000000 -T 0.000000
n -t 3.000000 -s 9 -x 69.487998 -y 94.247746 -U 0.248035 -V -0.968751 -T 11.326651
n -t 3.000000 -s 7 -x 85.087987 -y 75.309146 -U 0.699715 -V -0.714422 -T 17.426489
n -t 3.000000 -s 4 -x 61.509985 -y 13.398051 -U 0.593257 -V 0.805013 -T 20.880576
n -t 3.000000 -s 2 -x 85.175810 -y 7.430310 -U -0.794012 -V 0.607902 -T 14.204178
n -t 3.000000 -s 4 -x 61.509985 -y 13.398051 -U 0.593257 -V 0.805013 -T 15.880576
n -t 3.000000 -s 7 -x 85.087987 -y 75.309146 -U 0.699715 -V -0.714422 -T 12.426489
n -t 3.000000 -s 9 -x 69.487998 -y 94.247746 -U 0.248035 -V -0.968751 -T 6.326651
n -t 4.000000 -s 4 -x 62.103241 -y 14.203064 -U 0.000000 -V 0.000000 -T 0.000000
n -t 4.000000 -s 2 -x 84.381798 -y 8.038212 -U 0.000000 -V 0.000000 -T 0.000000
n -t 4.000000 -s 7 -x 85.787701 -y 74.594723 -U 0.000000 -V 0.000000 -T 0.000000
n -t 4.000000 -s 9 -x 69.736033 -y 93.278995 -U 0.000000 -V 0.000000 -T 0.000000
n -t 4.000000 -s 9 -x 69.736033 -y 93.278995 -U 0.252270 -V -0.967657 -T 12.632053
n -t 4.000000 -s 7 -x 85.787701 -y 74.594723 -U 0.669241 -V -0.743046 -T 16.182939
n -t 4.000000 -s 4 -x 62.103241 -y 14.203064 -U 0.663967 -V 0.747762 -T 18.038992
n -t 4.000000 -s 2 -x 84.381798 -y 8.038212 -U -0.881727 -V 0.471759 -T 11.683045
n -t 4.000000 -s 8 -x 38.165240 -y 56.732460 -U 0.959678 -V 0.281102 -T 36.217861
n -t 4.000000 -s 4 -x 62.103241 -y 14.203064 -U 0.663967 -V 0.747762 -T 13.038992
n -t 4.000000 -s 7 -x 85.787701 -y 74.594723 -U 0.669241 -V -0.743046 -T 11.182939
n -t 4.000000 -s 9 -x 69.736033 -y 93.278995 -U 0.252270 -V -0.967657 -T 7.632053
n -t 5.000000 -s 4 -x 62.767208 -y 14.950826 -U 0.000000 -V 0.000000 -T 0.000000
n -t 5.000000 -s 2 -x 83.500071 -y 8.509971 -U 0.000000 -V 0.000000 -T 0.000000
n -t 5.000000 -s 7 -x 86.456942 -y 73.851678 -U 0.000000 -V 0.000000 -T 0.000000
n -t 5.000000 -s 9 -x 69.988303 -y 92.311338 -U 0.000000 -V 0.000000 -T 0.000000
n -t 5.000000 -s 8 -x 39.124918 -y 57.013562 -U 0.000000 -V 0.000000 -T 0.000000
n -t 5.000000 -s 7 -x 86.456942 -y 73.851678 -U -0.932877 -V 0.360196 -T 13.837729
n -t 5.000000 -s 4 -x 62.767208 -y 14.950826 -U 0.747187 -V 0.664613 -T 15.386158
n -t 5.000000 -s 9 -x 69.988303 -y 92.311338 -U 0.654063 -V -0.756440 -T 39.699735
n -t 5.000000 -s 2 -x 83.500071 -y 8.509971 -U -0.964617 -V 0.263653 -T 9.575317
n -t 5.000000 -s 8 -x 39.124918 -y 57.013562 -U 0.976002 -V 0.217759 -T 35.269508
n -t 5.000000 -s 4 -x 62.767208 -y 14.950826 -U 0.747187 -V 0.664613 -T 10.386158
n -t 5.000000 -s 9 -x 69.988303 -y 92.311338 -U 0.654063 -V -0.756440 -T 34.699735
n -t 5.000000 -s 7 -x 86.456942 -y 73.851678 -U -0.932877 -V 0.360196 -T 8.837729
n -t 6.000000 -s 4 -x 63.514396 -y 15.615440 -U 0.000000 -V 0.000000 -T 0.000000
n -t 6.000000 -s 2 -x 82.535453 -y 8.773625 -U 0.000000 -V 0.000000 -T 0.000000
n -t 6.000000 -s 9 -x 70.642365 -y 91.554897 -U 0.000000 -V 0.000000 -T 0.000000
n -t 6.000000 -s 7 -x 85.524065 -y 74.211873 -U 0.000000 -V 0.000000 -T 0.000000
n -t 6.000000 -s 8 -x 40.100920 -y 57.231321 -U 0.000000 -V 0.000000 -T 0.000000
n -t 6.000000 -s 7 -x 85.524065 -y 74.211873 -U -0.978290 -V 0.207243 -T 11.602595
n -t 6.000000 -s 4 -x 63.514396 -y 15.615440 -U 0.840543 -V 0.541744 -T 13.006078
n -t 6.000000 -s 9 -x 70.642365 -y 91.554897 -U 0.640375 -V -0.768062 -T 38.490693
n -t 6.000000 -s 2 -x 82.535453 -y 8.773625 -U -0.999506 -V -0.031429 -T 8.092884
n -t 6.000000 -s 8 -x 40.100920 -y 57.231321 -U 0.988367 -V 0.152087 -T 34.473475
n -t 6.000000 -s 4 -x 63.514396 -y 15.615440 -U 0.840543 -V 0.541744 -T 8.006078
n -t 6.000000 -s 9 -x 70.642365 -y 91.554897 -U 0.640375 -V -0.768062 -T 33.490693
n -t 6.000000 -s 7 -x 85.524065 -y 74.211873 -U -0.978290 -V 0.207243 -T 6.602595
n -t 7.000000 -s 4 -x 64.354939 -y 16.157184 -U 0.000000 -V 0.000000 -T 0.000000
n -t 7.000000 -s 2 -x 81.535947 -y 8.742196 -U 0.000000 -V 0.000000 -T 0.000000
n -t 7.000000 -s 9 -x 71.282740 -y 90.786835 -U 0.000000 -V 0.000000 -T 0.000000
n -t 7.000000 -s 7 -x 84.545776 -y 74.419116 -U 0.000000 -V 0.000000 -T 0.000000
n -t 7.000000 -s 8 -x 41.089288 -y 57.383408 -U 0.000000 -V 0.000000 -T 0.000000
n -t 7.000000 -s 7 -x 84.545776 -y 74.419116 -U -0.999997 -V -0.002280 -T 9.747110
n -t 7.000000 -s 4 -x 64.354939 -y 16.157184 -U 0.932211 -V 0.361916 -T 11.021802
n -t 7.000000 -s 9 -x 71.282740 -y 90.786835 -U 0.625953 -V -0.779861 -T 37.294364
n -t 7.000000 -s 2 -x 81.535947 -y 8.742196 -U -0.929603 -V -0.368562 -T 7.429370
n -t 7.000000 -s 8 -x 41.089288 -y 57.383408 -U 0.996392 -V 0.084872 -T 33.831473
n -t 7.000000 -s 2 -x 81.535947 -y 8.742196 -U -0.847093 -V 0.531445 -T 8.153023
n -t 7.000000 -s 4 -x 64.354939 -y 16.157184 -U 0.932211 -V 0.361916 -T 6.021802
n -t 7.000000 -s 9 -x 71.282740 -y 90.786835 -U 0.625953 -V -0.779861 -T 32.294364
n -t 7.000000 -s 7 -x 84.545776 -y 74.419116 -U -0.999997 -V -0.002280 -T 4.747110
n -t 7.000000 -s 8 -x 41.089288 -y 57.383408 -U 0.000000 -V 0.000000 -T 0.000000
n -t 8.000000 -s 4 -x 65.287150 -y 16.519100 -U 0.000000 -V 0.000000 -T 0.000000
n -t 8.000000 -s 2 -x 80.688855 -y 9.273641 -U 0.000000 -V 0.000000 -T 0.000000
n -t 8.000000 -s 9 -x 71.908693 -y 90.006974 -U 0.000000 -V 0.000000 -T 0.000000
n -t 8.000000 -s 7 -x 83.545778 -y 74.416836 -U 0.000000 -V 0.000000 -T 0.000000
n -t 8.000000 -s 8 -x 41.089288 -y 57.383408 -U 0.000000 -V 0.000000 -T 0.000000
n -t 8.000000 -s 7 -x 83.545778 -y 74.416836 -U -0.999997 -V -0.002280 -T 8.747110
n -t 8.000000 -s 4 -x 65.287150 -y 16.519100 -U 0.961144 -V 0.276048 -T 9.790106
n -t 8.000000 -s 2 -x 80.688855 -y 9.273641 -U -0.819249 -V -0.573438 -T 7.314021
n -t 8.000000 -s 9 -x 71.908693 -y 90.006974 -U 0.610751 -V -0.791823 -T 36.111299
n -t 8.000000 -s 8 -x 41.089288 -y 57.383408 -U 0.996392 -V 0.084872 -T 33.831473
n -t 8.000000 -s 2 -x 80.688855 -y 9.273641 -U -0.901478 -V 0.432825 -T 6.646868
n -t 8.000000 -s 4 -x 65.287150 -y 16.519100 -U 0.961144 -V 0.276048 -T 4.790106
n -t 8.000000 -s 2 -x 80.688855 -y 9.273641 -U 0.000000 -V 0.000000 -T 0.000000
n -t 8.000000 -s 9 -x 71.908693 -y 90.006974 -U 0.610751 -V -0.791823 -T 31.111299
n -t 8.000000 -s 7 -x 83.545778 -y 74.416836 -U -0.964023 -V -0.265818 -T 3.424864
n -t 8.000000 -s 8 -x 41.089288 -y 57.383408 -U 0.000000 -V 0.000000 -T 0.000000
n -t 9.000000 -s 4 -x 66.248294 -y 16.795148 -U 0.000000 -V 0.000000 -T 0.000000
n -t 9.000000 -s 2 -x 80.688855 -y 9.273641 -U 0.000000 -V 0.000000 -T 0.000000
n -t 9.000000 -s 9 -x 72.519444 -y 89.215151 -U 0.000000 -V 0.000000 -T 0.000000
n -t 9.000000 -s 7 -x 82.581755 -y 74.151018 -U 0.000000 -V 0.000000 -T 0.000000
n -t 9.000000 -s 8 -x 41.089288 -y 57.383408 -U 0.000000 -V 0.000000 -T 0.000000
n -t 9.000000 -s 7 -x 82.581755 -y 74.151018 -U -0.999501 -V 0.031575 -T 7.786947
n -t 9.000000 -s 4 -x 66.248294 -y 16.795148 -U 0.961144 -V 0.276048 -T 8.790106
n -t 9.000000 -s 2 -x 80.688855 -y 9.273641 -U -0.819249 -V -0.573438 -T 7.314021
n -t 9.000000 -s 9 -x 72.519444 -y 89.215151 -U 0.594718 -V -0.803934 -T 34.942079
n -t 9.000000 -s 8 -x 41.089288 -y 57.383408 -U 0.996392 -V 0.084872 -T 33.831473
n -t 9.000000 -s 2 -x 80.688855 -y 9.273641 -U -0.901478 -V 0.432825 -T 6.646868
n -t 9.000000 -s 4 -x 66.248294 -y 16.795148 -U 0.961144 -V 0.276048 -T 3.790106
n -t 9.000000 -s 2 -x 80.688855 -y 9.273641 -U 0.000000 -V 0.000000 -T 0.000000
n -t 9.000000 -s 9 -x 72.519444 -y 89.215151 -U 0.594718 -V -0.803934 -T 29.942079
n -t 9.000000 -s 7 -x 82.581755 -y 74.151018 -U -0.841542 -V -0.540191 -T 2.762436
n -t 9.000000 -s 8 -x 41.089288 -y 57.383408 -U 0.000000 -V 0.000000 -T 0.000000
n -t 10.000000 -s 10 -x 74.696850 -y 19.221640 -U 0.656316 -V 0.922465 -T 30.623157
n -t 10.000000 -s 4 -x 67.209438 -y 17.071196 -U 0.000000 -V 0.000000 -T 0.000000
n -t 10.000000 -s 2 -x 80.688855 -y 9.273641 -U 0.000000 -V 0.000000 -T 0.000000
n -t 10.000000 -s 9 -x 73.114162 -y 88.411217 -U 0.000000 -V 0.000000 -T 0.000000
n -t 10.000000 -s 7 -x 81.740213 -y 73.610826 -U 0.000000 -V 0.000000 -T 0.000000
n -t 10.000000 -s 8 -x 41.089288 -y 57.383408 -U 0.000000 -V 0.000000 -T 0.000000
n -t 10.000000 -s 7 -x 81.740213 -y 73.610826 -U -0.993649 -V 0.112522 -T 6.985887
n -t 10.000000 -s 4 -x 67.209438 -y 17.071196 -U 0.961144 -V 0.276048 -T 7.790106
n -t 10.000000 -s 9 -x 73.114162 -y 88.411217 -U 0.577802 -V -0.816177 -T 33.787312
n -t 10.000000 -s 2 -x 80.688855 -y 9.273641 -U -0.819249 -V -0.573438 -T 7.314021
n -t 10.000000 -s 8 -x 41.089288 -y 57.383408 -U 0.996392 -V 0.084872 -T 33.831473
n -t 10.000000 -s 2 -x 80.688855 -y 9.273641 -U -0.901478 -V 0.432825 -T 6.646868
n -t 10.000000 -s 4 -x 67.209438 -y 17.071196 -U 0.961144 -V 0.276048 -T 2.790106
n -t 10.000000 -s 2 -x 80.688855 -y 9.273641 -U 0.000000 -V 0.000000 -T 0.000000
n -t 10.000000 -s 9 -x 73.114162 -y 88.411217 -U 0.577802 -V -0.816177 -T 28.787312
n -t 10.000000 -s 7 -x 81.740213 -y 73.610826 -U -0.653162 -V -0.757218 -T 2.755425
n -t 10.000000 -s 8 -x 41.089288 -y 57.383408 -U 0.000000 -V 0.000000 -T 0.000000
n -t 11.000000 -s 4 -x 68.170581 -y 17.347244 -U 0.000000 -V 0.000000 -T 0.000000
n -t 11.000000 -s 2 -x 80.688855 -y 9.273641 -U 0.000000 -V 0.000000 -T 0.000000
n -t 11.000000 -s 9 -x 73.691965 -y 87.595040 -U 0.000000 -V 0.000000 -T 0.000000
n -t 11.000000 -s 7 -x 81.087050 -y 72.853609 -U 0.000000 -V 0.000000 -T 0.000000
n -t 11.000000 -s 8 -x 41.089288 -y 57.383408 -U 0.000000 -V 0.000000 -T 0.000000
n -t 11.000000 -s 4 -x 68.170581 -y 17.347244 -U 0.961144 -V 0.276048 -T 6.790106
n -t 11.000000 -s 7 -x 81.087050 -y 72.853609 -U -0.458770 -V -0.888555 -T 8.254824
n -t 11.000000 -s 9 -x 73.691965 -y 87.595040 -U 0.559949 -V -0.828527 -T 32.647638
n -t 11.000000 -s 2 -x 80.688855 -y 9.273641 -U -0.819249 -V -0.573438 -T 7.314021
n -t 11.000000 -s 8 -x 41.089288 -y 57.383408 -U 0.986519 -V -0.163648 -T 36.705533
n -t 11.000000 -s 2 -x 80.688855 -y 9.273641 -U -0.880205 -V 0.474594 -T 6.061873
n -t 11.000000 -s 4 -x 68.170581 -y 17.347244 -U 0.931845 -V 0.362856 -T 2.707915
n -t 11.000000 -s 2 -x 80.688855 -y 9.273641 -U 0.000000 -V 0.000000 -T 0.000000
n -t 11.000000 -s 9 -x 73.691965 -y 87.595040 -U 0.559949 -V -0.828527 -T 27.647638
n -t 11.000000 -s 7 -x 81.087050 -y 72.853609 -U -0.458770 -V -0.888555 -T 3.254824
n -t 11.000000 -s 8 -x 41.089288 -y 57.383408 -U 0.000000 -V 0.000000 -T 0.000000
n -t 12.000000 -s 4 -x 69.102427 -y 17.710100 -U 0.000000 -V 0.000000 -T 0.000000
n -t 12.000000 -s 2 -x 80.688855 -y 9.273641 -U 0.000000 -V 0.000000 -T 0.000000
n -t 12.000000 -s 9 -x 74.251914 -y 86.766513 -U 0.000000 -V 0.000000 -T 0.000000
n -t 12.000000 -s 7 -x 80.628280 -y 71.965054 -U 0.000000 -V 0.000000 -T 0.000000
n -t 12.000000 -s 8 -x 41.089288 -y 57.383408 -U 0.000000 -V 0.000000 -T 0.000000
n -t 12.000000 -s 4 -x 69.102427 -y 17.710100 -U 0.965384 -V 0.260834 -T 5.795026
n -t 12.000000 -s 7 -x 80.628280 -y 71.965054 -U -0.458770 -V -0.888555 -T 7.254824
n -t 12.000000 -s 9 -x 74.251914 -y 86.766513 -U 0.541100 -V -0.840958 -T 31.523726
n -t 12.000000 -s 2 -x 80.688855 -y 9.273641 -U -0.819249 -V -0.573438 -T 7.314021
n -t 12.000000 -s 8 -x 41.089288 -y 57.383408 -U 0.986519 -V -0.163648 -T 36.705533
n -t 12.000000 -s 2 -x 80.688855 -y 9.273641 -U -0.851876 -V 0.523743 -T 5.493019
n -t 12.000000 -s 4 -x 69.102427 -y 17.710100 -U 0.899425 -V 0.437074 -T 2.679409
n -t 12.000000 -s 2 -x 80.688855 -y 9.273641 -U 0.000000 -V 0.000000 -T 0.000000
n -t 12.000000 -s 9 -x 74.251914 -y 86.766513 -U 0.541100 -V -0.840958 -T 26.523726
n -t 12.000000 -s 7 -x 80.628280 -y 71.965054 -U -0.297763 -V -0.954640 -T 4.077608
n -t 12.000000 -s 8 -x 41.089288 -y 57.383408 -U 0.000000 -V 0.000000 -T 0.000000
n -t 13.000000 -s 4 -x 70.001852 -y 18.147174 -U 0.000000 -V 0.000000 -T 0.000000
n -t 13.000000 -s 2 -x 80.688855 -y 9.273641 -U 0.000000 -V 0.000000 -T 0.000000
n -t 13.000000 -s 9 -x 74.793014 -y 85.925555 -U 0.000000 -V 0.000000 -T 0.000000
n -t 13.000000 -s 7 -x 80.330517 -y 71.010414 -U 0.000000 -V 0.000000 -T 0.000000
n -t 13.000000 -s 8 -x 41.089288 -y 57.383408 -U 0.000000 -V 0.000000 -T 0.000000
n -t 13.000000 -s 4 -x 70.001852 -y 18.147174 -U 0.974799 -V 0.223086 -T 4.816376
n -t 13.000000 -s 7 -x 80.330517 -y 71.010414 -U -0.483156 -V -0.875534 -T 6.272366
n -t 13.000000 -s 9 -x 74.793014 -y 85.925555 -U 0.521195 -V -0.853437 -T 30.416274
n -t 13.000000 -s 2 -x 80.688855 -y 9.273641 -U -0.819249 -V -0.573438 -T 7.314021
n -t 13.000000 -s 8 -x 41.089288 -y 57.383408 -U 0.986519 -V -0.163648 -T 36.705533
n -t 13.000000 -s 2 -x 80.688855 -y 9.273641 -U -0.813416 -V 0.581683 -T 4.945878
n -t 13.000000 -s 4 -x 70.001852 -y 18.147174 -U 0.866339 -V 0.499457 -T 2.692080
n -t 13.000000 -s 2 -x 80.688855 -y 9.273641 -U 0.000000 -V 0.000000 -T 0.000000
n -t 13.000000 -s 9 -x 74.793014 -y 85.925555 -U 0.521195 -V -0.853437 -T 25.416274
n -t 13.000000 -s 7 -x 80.330517 -y 71.010414 -U -0.176419 -V -0.984315 -T 5.088988
n -t 14.000000 -s 4 -x 70.868191 -y 18.646631 -U 0.000000 -V 0.000000 -T 0.000000
n -t 14.000000 -s 2 -x 80.688855 -y 9.273641 -U 0.000000 -V 0.000000 -T 0.000000
n -t 14.000000 -s 9 -x 75.314209 -y 85.072118 -U 0.000000 -V 0.000000 -T 0.000000
n -t 14.000000 -s 7 -x 80.154099 -y 70.026099 -U 0.000000 -V 0.000000 -T 0.000000
n -t 14.000000 -s 8 -x 42.075806 -y 57.219760 -U 0.000000 -V 0.000000 -T 0.000000
n -t 14.000000 -s 4 -x 70.868191 -y 18.646631 -U 0.988909 -V 0.148520 -T 3.871597
n -t 14.000000 -s 7 -x 80.154099 -y 70.026099 -U -0.087266 -V -0.996185 -T 11.208727
n -t 14.000000 -s 9 -x 75.314209 -y 85.072118 -U 0.500172 -V -0.865926 -T 29.326014
n -t 14.000000 -s 2 -x 80.688855 -y 9.273641 -U -0.819249 -V -0.573438 -T 7.314021
n -t 14.000000 -s 8 -x 42.075806 -y 57.219760 -U 0.947643 -V -0.319331 -T 39.149903
n -t 14.000000 -s 2 -x 80.688855 -y 9.273641 -U -0.760243 -V 0.649639 -T 4.428506
n -t 14.000000 -s 4 -x 70.868191 -y 18.646631 -U 0.834295 -V 0.551318 -T 2.735778
n -t 14.000000 -s 2 -x 80.688855 -y 9.273641 -U 0.000000 -V 0.000000 -T 0.000000
n -t 14.000000 -s 9 -x 75.314209 -y 85.072118 -U 0.500172 -V -0.865926 -T 24.326014
n -t 14.000000 -s 7 -x 80.154099 -y 70.026099 -U -0.087266 -V -0.996185 -T 6.208727
n -t 15.000000 -s 4 -x 71.702487 -y 19.197948 -U 0.000000 -V 0.000000 -T 0.000000
n -t 15.000000 -s 2 -x 80.688855 -y 9.273641 -U 0.000000 -V 0.000000 -T 0.000000
n -t 15.000000 -s 9 -x 75.814382 -y 84.206192 -U 0.000000 -V 0.000000 -T 0.000000
n -t 15.000000 -s 7 -x 80.066832 -y 69.029914 -U 0.000000 -V 0.000000 -T 0.000000
n -t 15.000000 -s 8 -x 43.023450 -y 56.900429 -U 0.000000 -V 0.000000 -T 0.000000
n -t 15.000000 -s 4 -x 71.702487 -y 19.197948 -U 0.999969 -V 0.007912 -T 2.994457
n -t 15.000000 -s 7 -x 80.066832 -y 69.029914 -U -0.021429 -V -0.999770 -T 12.392163
n -t 15.000000 -s 9 -x 75.814382 -y 84.206192 -U 0.477966 -V -0.878378 -T 28.253705
n -t 15.000000 -s 2 -x 80.688855 -y 9.273641 -U -0.819249 -V -0.573438 -T 7.314021
n -t 15.000000 -s 8 -x 43.023450 -y 56.900429 -U 0.931151 -V -0.364633 -T 39.497154
n -t 15.000000 -s 2 -x 80.688855 -y 9.273641 -U -0.685730 -V 0.727856 -T 3.952610
n -t 15.000000 -s 4 -x 71.702487 -y 19.197948 -U 0.804343 -V 0.594165 -T 2.802574
n -t 15.000000 -s 2 -x 80.688855 -y 9.273641 -U 0.000000 -V 0.000000 -T 0.000000
n -t 15.000000 -s 9 -x 75.814382 -y 84.206192 -U 0.477966 -V -0.878378 -T 23.253705
n -t 15.000000 -s 7 -x 80.066832 -y 69.029914 -U -0.021429 -V -0.999770 -T 7.392163
n -t 16.000000 -s 4 -x 72.506829 -y 19.792114 -U 0.000000 -V 0.000000 -T 0.000000
n -t 16.000000 -s 2 -x 80.688855 -y 9.273641 -U 0.000000 -V 0.000000 -T 0.000000
n -t 16.000000 -s 9 -x 76.292348 -y 83.327814 -U 0.000000 -V 0.000000 -T 0.000000
n -t 16.000000 -s 7 -x 80.045403 -y 68.030143 -U 0.000000 -V 0.000000 -T 0.000000
n -t 16.000000 -s 8 -x 43.954601 -y 56.535796 -U 0.000000 -V 0.000000 -T 0.000000
n -t 16.000000 -s 4 -x 72.506829 -y 19.792114 -U 0.967707 -V -0.252076 -T 2.263102
n -t 16.000000 -s 7 -x 80.045403 -y 68.030143 -U 0.694055 -V -0.719922 -T 12.404956
n -t 16.000000 -s 9 -x 76.292348 -y 83.327814 -U 0.141580 -V -0.989927 -T 29.200899
n -t 16.000000 -s 2 -x 80.688855 -y 9.273641 -U -0.819249 -V -0.573438 -T 7.314021
n -t 16.000000 -s 8 -x 43.954601 -y 56.535796 -U 0.913373 -V -0.407123 -T 39.931097
n -t 16.000000 -s 2 -x 80.688855 -y 9.273641 -U -0.581080 -V 0.813846 -T 3.534980
n -t 16.000000 -s 4 -x 72.506829 -y 19.792114 -U 0.777020 -V 0.629476 -T 2.886434
n -t 16.000000 -s 2 -x 80.688855 -y 9.273641 -U 0.000000 -V 0.000000 -T 0.000000
n -t 16.000000 -s 7 -x 80.045403 -y 68.030143 -U 0.694055 -V -0.719922 -T 7.404956
n -t 16.000000 -s 9 -x 76.292348 -y 83.327814 -U 0.141580 -V -0.989927 -T 24.200899
n -t 17.000000 -s 4 -x 73.283850 -y 20.421589 -U 0.000000 -V 0.000000 -T 0.000000
n -t 17.000000 -s 2 -x 80.688855 -y 9.273641 -U 0.000000 -V 0.000000 -T 0.000000
n -t 17.000000 -s 7 -x 80.739458 -y 67.310221 -U 0.000000 -V 0.000000 -T 0.000000
n -t 17.000000 -s 9 -x 76.433927 -y 82.337887 -U 0.000000 -V 0.000000 -T 0.000000
n -t 17.000000 -s 8 -x 44.867974 -y 56.128673 -U 0.000000 -V 0.000000 -T 0.000000
n -t 17.000000 -s 4 -x 73.283850 -y 20.421589 -U 0.762232 -V -0.647304 -T 1.853766
n -t 17.000000 -s 7 -x 80.739458 -y 67.310221 -U 0.649060 -V -0.760737 -T 11.173227
n -t 17.000000 -s 9 -x 76.433927 -y 82.337887 -U 0.151469 -V -0.988462 -T 30.488135
n -t 17.000000 -s 2 -x 80.688855 -y 9.273641 -U -0.819249 -V -0.573438 -T 7.314021
n -t 17.000000 -s 8 -x 44.867974 -y 56.128673 -U 0.894651 -V -0.446765 -T 40.444742
n -t 17.000000 -s 2 -x 80.688855 -y 9.273641 -U -0.437011 -V 0.899456 -T 3.198523
n -t 17.000000 -s 4 -x 73.283850 -y 20.421589 -U 0.752515 -V 0.658575 -T 2.982851
n -t 17.000000 -s 2 -x 80.688855 -y 9.273641 -U 0.000000 -V 0.000000 -T 0.000000
n -t 17.000000 -s 7 -x 80.739458 -y 67.310221 -U 0.649060 -V -0.760737 -T 6.173227
n -t 17.000000 -s 9 -x 76.433927 -y 82.337887 -U 0.151469 -V -0.988462 -T 25.488135
n -t 18.000000 -s 4 -x 74.036365 -y 21.080165 -U 0.000000 -V 0.000000 -T 0.000000
n -t 18.000000 -s 2 -x 80.688855 -y 9.273641 -U 0.000000 -V 0.000000 -T 0.000000
n -t 18.000000 -s 7 -x 81.388518 -y 66.549484 -U 0.000000 -V 0.000000 -T 0.000000
n -t 18.000000 -s 9 -x 76.585396 -y 81.349425 -U 0.000000 -V 0.000000 -T 0.000000
n -t 18.000000 -s 8 -x 45.762626 -y 55.681908 -U 0.000000 -V 0.000000 -T 0.000000
n -t 18.000000 -s 4 -x 74.036365 -y 21.080165 -U 0.730793 -V 0.682599 -T 8.088494
n -t 18.000000 -s 7 -x 81.388518 -y 66.549484 -U 0.594744 -V -0.803915 -T 9.986582
n -t 18.000000 -s 9 -x 76.585396 -y 81.349425 -U 0.160232 -V -0.987079 -T 31.778030
n -t 18.000000 -s 2 -x 80.688855 -y 9.273641 -U 0.391784 -V 0.920057 -T 34.204234
n -t 18.000000 -s 8 -x 45.762626 -y 55.681908 -U 0.875298 -V -0.483584 -T 41.031295
n -t 18.000000 -s 4 -x 74.036365 -y 21.080165 -U 0.730793 -V 0.682599 -T 3.088494
n -t 18.000000 -s 2 -x 80.688855 -y 9.273641 -U 0.000000 -V 0.000000 -T 0.000000
n -t 18.000000 -s 7 -x 81.388518 -y 66.549484 -U 0.594744 -V -0.803915 -T 4.986582
n -t 18.000000 -s 9 -x 76.585396 -y 81.349425 -U 0.160232 -V -0.987079 -T 26.778030
n -t 19.000000 -s 4 -x 74.767158 -y 21.762763 -U 0.000000 -V 0.000000 -T 0.000000
n -t 19.000000 -s 2 -x 80.688855 -y 9.273641 -U 0.000000 -V 0.000000 -T 0.000000
n -t 19.000000 -s 7 -x 81.983262 -y 65.745569 -U 0.000000 -V 0.000000 -T 0.000000
n -t 19.000000 -s 9 -x 76.745628 -y 80.362345 -U 0.000000 -V 0.000000 -T 0.000000
n -t 19.000000 -s 8 -x 46.637924 -y 55.198325 -U 0.000000 -V 0.000000 -T 0.000000
n -t 19.000000 -s 4 -x 74.767158 -y 21.762763 -U 0.730793 -V 0.682599 -T 7.088494
n -t 19.000000 -s 7 -x 81.983262 -y 65.745569 -U 0.594744 -V -0.803915 -T 8.986582
n -t 19.000000 -s 9 -x 76.745628 -y 80.362345 -U 0.168035 -V -0.985781 -T 33.070121
n -t 19.000000 -s 2 -x 80.688855 -y 9.273641 -U 0.391784 -V 0.920057 -T 34.204234
n -t 19.000000 -s 8 -x 46.637924 -y 55.198325 -U 0.855590 -V -0.517654 -T 41.684259
n -t 19.000000 -s 4 -x 74.767158 -y 21.762763 -U 0.711693 -V 0.702490 -T 3.200918
n -t 19.000000 -s 2 -x 80.688855 -y 9.273641 -U 0.000000 -V 0.000000 -T 0.000000
n -t 19.000000 -s 7 -x 81.983262 -y 65.745569 -U 0.528789 -V -0.848753 -T 3.852580
n -t 19.000000 -s 9 -x 76.745628 -y 80.362345 -U 0.168035 -V -0.985781 -T 28.070121
n -t 20.000000 -s 4 -x 75.478851 -y 22.465254 -U 0.000000 -V 0.000000 -T 0.000000
n -t 20.000000 -s 2 -x 80.688855 -y 9.273641 -U 0.000000 -V 0.000000 -T 0.000000
n -t 20.000000 -s 7 -x 82.512051 -y 64.896816 -U 0.000000 -V 0.000000 -T 0.000000
n -t 20.000000 -s 9 -x 76.913663 -y 79.376564 -U 0.000000 -V 0.000000 -T 0.000000
n -t 20.000000 -s 8 -x 47.493514 -y 54.680671 -U 0.000000 -V 0.000000 -T 0.000000
n -t 20.000000 -s 7 -x 82.512051 -y 64.896816 -U 0.602733 -V -0.797943 -T 7.990160
n -t 20.000000 -s 4 -x 75.478851 -y 22.465254 -U 0.733877 -V 0.679283 -T 6.088937
n -t 20.000000 -s 9 -x 76.913663 -y 79.376564 -U 0.175015 -V -0.984566 -T 34.364037
n -t 20.000000 -s 2 -x 80.688855 -y 9.273641 -U 0.391784 -V 0.920057 -T 34.204234
n -t 20.000000 -s 8 -x 47.493514 -y 54.680671 -U 0.835766 -V -0.549086 -T 42.397507
n -t 20.000000 -s 4 -x 75.478851 -y 22.465254 -U 0.694990 -V 0.719019 -T 3.318334
n -t 20.000000 -s 2 -x 80.688855 -y 9.273641 -U 0.000000 -V 0.000000 -T 0.000000
n -t 20.000000 -s 7 -x 82.512051 -y 64.896816 -U 0.448419 -V -0.893823 -T 2.780188
n -t 20.000000 -s 9 -x 76.913663 -y 79.376564 -U 0.175015 -V -0.984566 -T 29.364037
n -t 21.000000 -s 4 -x 76.173842 -y 23.184273 -U 0.000000 -V 0.000000 -T 0.000000
n -t 21.000000 -s 2 -x 80.688855 -y 9.273641 -U 0.000000 -V 0.000000 -T 0.000000
n -t 21.000000 -s 7 -x 82.960470 -y 64.002992 -U 0.000000 -V 0.000000 -T 0.000000
n -t 21.000000 -s 9 -x 77.088678 -y 78.391999 -U 0.000000 -V 0.000000 -T 0.000000
n -t 21.000000 -s 8 -x 48.329280 -y 54.131585 -U 0.000000 -V 0.000000 -T 0.000000
n -t 21.000000 -s 7 -x 82.960470 -y 64.002992 -U 0.623129 -V -0.782119 -T 7.008998
n -t 21.000000 -s 4 -x 76.173842 -y 23.184273 -U 0.741249 -V 0.671230 -T 5.090786
n -t 21.000000 -s 2 -x 80.688855 -y 9.273641 -U 0.083827 -V 0.996480 -T 34.170000
n -t 21.000000 -s 9 -x 77.088678 -y 78.391999 -U -0.113997 -V -0.993481 -T 34.236196
n -t 21.000000 -s 8 -x 48.329280 -y 54.131585 -U 0.816024 -V -0.578018 -T 43.165325
n -t 21.000000 -s 4 -x 76.173842 -y 23.184273 -U 0.680435 -V 0.732808 -T 3.439434
n -t 21.000000 -s 7 -x 82.960470 -y 64.002992 -U 0.350572 -V -0.936536 -T 1.779772
n -t 21.000000 -s 9 -x 77.088678 -y 78.391999 -U 0.000000 -V 0.000000 -T 0.000000
n -t 21.000000 -s 2 -x 80.688855 -y 9.273641 -U 0.083827 -V 0.996480 -T 29.170000
n -t 22.000000 -s 4 -x 76.854277 -y 23.917081 -U 0.000000 -V 0.000000 -T 0.000000
n -t 22.000000 -s 7 -x 83.311042 -y 63.066456 -U 0.000000 -V 0.000000 -T 0.000000
n -t 22.000000 -s 9 -x 77.088678 -y 78.391999 -U 0.000000 -V 0.000000 -T 0.000000
n -t 22.000000 -s 2 -x 80.772681 -y 10.270121 -U 0.000000 -V 0.000000 -T 0.000000
n -t 22.000000 -s 8 -x 49.145303 -y 53.553566 -U 0.000000 -V 0.000000 -T 0.000000
n -t 22.000000 -s 7 -x 83.311042 -y 63.066456 -U 0.662210 -V -0.749318 -T 6.065959
n -t 22.000000 -s 4 -x 76.854277 -y 23.917081 -U 0.755255 -V 0.655431 -T 4.095444
n -t 22.000000 -s 2 -x 80.772681 -y 10.270121 -U 0.109791 -V 0.993955 -T 31.021249
n -t 22.000000 -s 9 -x 77.088678 -y 78.391999 -U -0.113997 -V -0.993481 -T 34.236196
n -t 22.000000 -s 8 -x 49.145303 -y 53.553566 -U 0.796528 -V -0.604602 -T 43.982436
n -t 22.000000 -s 4 -x 76.854277 -y 23.917081 -U 0.667779 -V 0.744359 -T 3.563262
n -t 22.000000 -s 7 -x 83.311042 -y 63.066456 -U 0.232426 -V -0.972614 -T 0.862731
n -t 22.000000 -s 9 -x 77.088678 -y 78.391999 -U 0.000000 -V 0.000000 -T 0.000000
n -t 22.000000 -s 2 -x 80.772681 -y 10.270121 -U 0.109791 -V 0.993955 -T 26.021249
n -t 23.000000 -s 4 -x 77.522056 -y 24.661440 -U 0.000000 -V 0.000000 -T 0.000000
n -t 23.000000 -s 7 -x 83.511563 -y 62.227352 -U 0.000000 -V 0.000000 -T 0.000000
n -t 23.000000 -s 9 -x 77.088678 -y 78.391999 -U 0.000000 -V 0.000000 -T 0.000000
n -t 23.000000 -s 2 -x 80.882472 -y 11.264076 -U 0.000000 -V 0.000000 -T 0.000000
n -t 23.000000 -s 8 -x 49.941831 -y 52.948965 -U 0.000000 -V 0.000000 -T 0.000000
n -t 23.000000 -s 7 -x 83.511563 -y 62.227352 -U 0.717387 -V -0.696675 -T 5.319886
n -t 23.000000 -s 4 -x 77.522056 -y 24.661440 -U 0.780922 -V 0.624629 -T 3.105720
n -t 23.000000 -s 2 -x 80.882472 -y 11.264076 -U 0.140566 -V 0.990071 -T 27.897205
n -t 23.000000 -s 9 -x 77.088678 -y 78.391999 -U -0.113997 -V -0.993481 -T 34.236196
n -t 23.000000 -s 8 -x 49.941831 -y 52.948965 -U 0.777407 -V -0.628998 -T 44.844003
n -t 23.000000 -s 4 -x 77.522056 -y 24.661440 -U 0.656788 -V 0.754075 -T 3.689117
n -t 23.000000 -s 7 -x 83.511563 -y 62.227352 -U 0.096315 -V -0.995351 -T 0.176345
n -t 23.000000 -s 9 -x 77.088678 -y 78.391999 -U 0.000000 -V 0.000000 -T 0.000000
n -t 23.000000 -s 2 -x 80.882472 -y 11.264076 -U 0.140566 -V 0.990071 -T 22.897205
n -t 24.000000 -s 4 -x 78.178844 -y 25.415515 -U 0.000000 -V 0.000000 -T 0.000000
n -t 24.000000 -s 7 -x 83.528548 -y 62.051827 -U 0.000000 -V 0.000000 -T 0.000000
n -t 24.000000 -s 9 -x 77.088678 -y 78.391999 -U 0.000000 -V 0.000000 -T 0.000000
n -t 24.000000 -s 2 -x 81.023038 -y 12.254147 -U 0.000000 -V 0.000000 -T 0.000000
n -t 24.000000 -s 8 -x 50.719238 -y 52.319966 -U 0.000000 -V 0.000000 -T 0.000000
n -t 24.000000 -s 7 -x 83.528548 -y 62.051827 -U 0.732538 -V -0.680726 -T 5.186672