n -t * -s 0  -x 83.770759999999996 -y 66.562439999999995 -Z 0 -z 1  -v circle -c black
n -t * -s 1  -x 2.0869049999999998 -y 4.2663859999999998 -Z 0 -z 1  -v circle -c black
n -t * -s 2  -x 97.68732 -y 44.375 -Z 0 -z 1  -v circle -c black
n -t * -s 3  -x 28.110749999999999 -y 48.832529999999998 -Z 0 -z 1  -v circle -c black
n -t * -s 4  -x 42.11206 -y 14.34361 -Z 0 -z 1  -v circle -c black
n -t * -s 5  -x 36.558459999999997 -y 25.374300000000002 -Z 0 -z 1  -v circle -c black
n -t * -s 6  -x 49.263010000000001 -y 82.125659999999996 -Z 0 -z 1  -v circle -c black
n -t * -s 7  -x 37.266919999999999 -y 1.4817800000000001 -Z 0 -z 1  -v circle -c black
n -t * -s 8  -x 92.929919999999996 -y 52.79974 -Z 0 -z 1  -v circle -c black
n -t * -s 9  -x 18.499040000000001 -y 6.9134310000000001 -Z 0 -z 1  -v circle -c black
n -t * -s 10  -x 55.318129999999996 -y 25.686769999999999 -Z 0 -z 2  -v circle -c black
n -t * -s 11  -x 93.290400000000005 -y 20.669820000000001 -Z 0 -z 2  -v circle -c black
n -t * -s 12  -x 49.918599999999998 -y 36.025269999999999 -Z 0 -z 2  -v circle -c black
V -t * -v 1.0a5 -a 0
W -t * -x 100 -y 100
A -t * -n 1 -p 0 -o 0x7fffffff -c 30 -a 1
A -t * -h 1 -m 1073741823 -s 0
n -t 0 -s 10 -S COLOR -c red -o black -i red -I black
n -t 0 -s 11 -S COLOR -c red -o black -i red -I black
n -t 0 -s 12 -S COLOR -c red -o black -i red -I black
n -t 0.000000 -s 10 -x 55.318130 -y 25.686770 -U 0.042564 -V 1.314317 -T 35.526446
n -t 0.000000 -s 11 -x 93.290400 -y 20.669820 -U -0.858562 -V 0.671424 -T 53.299784
n -t 0.000000 -s 12 -x 49.918600 -y 36.025270 -U -1.923989 -V 0.903651 -T 20.482470
n -t 0.000000 -s 4 -x 42.112060 -y 14.343610 -U -0.317165 -V -0.948370 -T 2.951353
n -t 0.000000 -s 5 -x 36.558460 -y 25.374300 -U -0.218577 -V -0.975820 -T 3.577674
n -t 0.000000 -s 3 -x 28.110750 -y 48.832530 -U 0.985175 -V 0.171554 -T 7.781071
n -t 0.000000 -s 2 -x 97.687320 -y 44.375000 -U -0.417742 -V -0.908565 -T 10.525432
n -t 0.000000 -s 7 -x 37.266920 -y 1.481780 -U 0.597825 -V 0.801627 -T 30.194829
n -t 0.000000 -s 8 -x 92.929920 -y 52.799740 -U 0.011219 -V -0.999937 -T 32.131942
n -t 0.000000 -s 9 -x 18.499040 -y 6.913431 -U 0.733532 -V 0.679655 -T 42.833257
n -t 0.000000 -s 4 -x 42.112060 -y 14.343610 -U 0.758584 -V 0.651575 -T 12.408836
n -t 0.000000 -s 2 -x 97.687320 -y 44.375000 -U -0.182373 -V -0.983229 -T 19.109510
n -t 0.000000 -s 5 -x 36.558460 -y 25.374300 -U 0.781928 -V 0.623369 -T 12.086149
n -t 1.000000 -s 4 -x 42.870644 -y 14.995185 -U 0.000000 -V 0.000000 -T 0.000000
n -t 1.000000 -s 7 -x 37.864745 -y 2.283407 -U 0.000000 -V 0.000000 -T 0.000000
n -t 1.000000 -s 2 -x 97.504947 -y 43.391771 -U 0.000000 -V 0.000000 -T 0.000000
n -t 1.000000 -s 8 -x 92.941139 -y 51.799803 -U 0.000000 -V 0.000000 -T 0.000000
n -t 1.000000 -s 5 -x 37.340388 -y 25.997669 -U 0.000000 -V 0.000000 -T 0.000000
n -t 1.000000 -s 3 -x 29.095925 -y 49.004084 -U 0.000000 -V 0.000000 -T 0.000000
n -t 1.000000 -s 9 -x 19.232572 -y 7.593086 -U 0.000000 -V 0.000000 -T 0.000000
n -t 1.000000 -s 3 -x 29.095925 -y 49.004084 -U 0.917147 -V 0.398549 -T 5.186246
n -t 1.000000 -s 4 -x 42.870644 -y 14.995185 -U -0.611763 -V -0.791041 -T 2.700534
n -t 1.000000 -s 5 -x 37.340388 -y 25.997669 -U 0.968120 -V 0.250487 -T 4.005877
n -t 1.000000 -s 2 -x 97.504947 -y 43.391771 -U -0.539940 -V -0.841704 -T 9.395695
n -t 1.000000 -s 7 -x 37.864745 -y 2.283407 -U 0.577744 -V 0.816218 -T 30.283196
n -t 1.000000 -s 8 -x 92.941139 -y 51.799803 -U -0.016719 -V -0.999860 -T 30.462816
n -t 1.000000 -s 9 -x 19.232572 -y 7.593086 -U 0.700089 -V 0.714056 -T 41.083404
n -t 1.000000 -s 4 -x 42.870644 -y 14.995185 -U 0.720942 -V 0.692996 -T 12.324636
n -t 1.000000 -s 2 -x 97.504947 -y 43.391771 -U -0.224210 -V -0.974541 -T 17.626580
n -t 1.000000 -s 3 -x 29.095925 -y 49.004084 -U 0.920964 -V -0.389647 -T 12.842645
n -t 1.000000 -s 3 -x 29.095925 -y 49.004084 -U 0.842676 -V -0.538421 -T 17.426990
n -t 2.000000 -s 4 -x 43.591586 -y 15.688181 -U 0.000000 -V 0.000000 -T 0.000000
n -t 2.000000 -s 5 -x 38.308508 -y 26.248155 -U 0.000000 -V 0.000000 -T 0.000000
n -t 2.000000 -s 7 -x 38.442489 -y 3.099625 -U 0.000000 -V 0.000000 -T 0.000000
n -t 2.000000 -s 2 -x 97.280737 -y 42.417230 -U 0.000000 -V 0.000000 -T 0.000000
n -t 2.000000 -s 8 -x 92.924420 -y 50.799943 -U 0.000000 -V 0.000000 -T 0.000000
n -t 2.000000 -s 3 -x 29.938601 -y 48.465663 -U 0.000000 -V 0.000000 -T 0.000000
n -t 2.000000 -s 9 -x 19.932661 -y 8.307142 -U 0.000000 -V 0.000000 -T 0.000000
n -t 2.000000 -s 3 -x 29.938601 -y 48.465663 -U 0.493280 -V 0.869870 -T 4.033986
n -t 2.000000 -s 4 -x 43.591586 -y 15.688181 -U -0.838425 -V -0.545017 -T 2.779572
n -t 2.000000 -s 5 -x 38.308508 -y 26.248155 -U 0.819177 -V 0.573540 -T 3.604365
n -t 2.000000 -s 2 -x 97.280737 -y 42.417230 -U -0.673599 -V -0.739097 -T 8.473080
n -t 2.000000 -s 8 -x 92.924420 -y 50.799943 -U -0.046884 -V -0.998900 -T 28.818965
n -t 2.000000 -s 7 -x 38.442489 -y 3.099625 -U 0.558118 -V 0.829761 -T 30.389196
n -t 2.000000 -s 9 -x 19.932661 -y 8.307142 -U 0.662849 -V 0.748753 -T 39.432779
n -t 2.000000 -s 5 -x 38.308508 -y 26.248155 -U 0.992767 -V 0.120054 -T 12.219291
n -t 2.000000 -s 2 -x 97.280737 -y 42.417230 -U -0.269375 -V -0.963035 -T 16.187761
n -t 2.000000 -s 3 -x 29.938601 -y 48.465663 -U 0.930669 -V -0.365863 -T 9.735958
n -t 2.000000 -s 3 -x 29.938601 -y 48.465663 -U 0.834943 -V -0.550336 -T 14.321095
n -t 3.000000 -s 4 -x 42.753161 -y 15.143164 -U 0.000000 -V 0.000000 -T 0.000000
n -t 3.000000 -s 5 -x 39.301275 -y 26.368209 -U 0.000000 -V 0.000000 -T 0.000000
n -t 3.000000 -s 7 -x 39.000607 -y 3.929386 -U 0.000000 -V 0.000000 -T 0.000000
n -t 3.000000 -s 2 -x 97.011362 -y 41.454194 -U 0.000000 -V 0.000000 -T 0.000000
n -t 3.000000 -s 8 -x 92.877536 -y 49.801042 -U 0.000000 -V 0.000000 -T 0.000000
n -t 3.000000 -s 3 -x 30.773544 -y 47.915327 -U 0.000000 -V 0.000000 -T 0.000000
n -t 3.000000 -s 9 -x 20.595509 -y 9.055895 -U 0.000000 -V 0.000000 -T 0.000000
n -t 3.000000 -s 4 -x 42.753161 -y 15.143164 -U -0.972911 -V 0.231181 -T 1.489832
n -t 3.000000 -s 3 -x 30.773544 -y 47.915327 -U -0.153128 -V 0.988206 -T 5.022263
n -t 3.000000 -s 5 -x 39.301275 -y 26.368209 -U 0.523212 -V 0.852203 -T 3.827154
n -t 3.000000 -s 2 -x 97.011362 -y 41.454194 -U 0.542493 -V -0.840061 -T 5.509086
n -t 3.000000 -s 8 -x 92.877536 -y 49.801042 -U -0.164425 -V -0.986390 -T 13.153843
n -t 3.000000 -s 7 -x 39.000607 -y 3.929386 -U 0.538984 -V 0.842316 -T 30.511511
n -t 3.000000 -s 9 -x 20.595509 -y 9.055895 -U 0.621582 -V 0.783349 -T 37.889013
n -t 3.000000 -s 5 -x 39.301275 -y 26.368209 -U 0.980198 -V 0.198019 -T 11.470697
n -t 3.000000 -s 2 -x 97.011362 -y 41.454194 -U -0.318043 -V -0.948076 -T 14.798093
n -t 3.000000 -s 3 -x 30.773544 -y 47.915327 -U 0.948350 -V -0.317225 -T 6.645245
n -t 3.000000 -s 3 -x 30.773544 -y 47.915327 -U 0.824470 -V -0.565905 -T 11.220217
n -t 4.000000 -s 4 -x 41.780250 -y 15.374345 -U 0.000000 -V 0.000000 -T 0.000000
n -t 4.000000 -s 5 -x 40.281474 -y 26.566228 -U 0.000000 -V 0.000000 -T 0.000000
n -t 4.000000 -s 7 -x 39.539591 -y 4.771702 -U 0.000000 -V 0.000000 -T 0.000000
n -t 4.000000 -s 2 -x 96.693319 -y 40.506118 -U 0.000000 -V 0.000000 -T 0.000000
n -t 4.000000 -s 8 -x 92.713111 -y 48.814653 -U 0.000000 -V 0.000000 -T 0.000000
n -t 4.000000 -s 3 -x 31.598014 -y 47.349422 -U 0.000000 -V 0.000000 -T 0.000000
n -t 4.000000 -s 9 -x 21.217091 -y 9.839244 -U 0.000000 -V 0.000000 -T 0.000000
n -t 4.000000 -s 4 -x 41.780250 -y 15.374345 -U -0.290870 -V 0.956762 -T 1.492070
n -t 4.000000 -s 5 -x 40.281474 -y 26.566228 -U 0.876055 -V -0.482212 -T 2.215809
n -t 4.000000 -s 3 -x 31.598014 -y 47.349422 -U -0.479779 -V 0.877389 -T 7.331511
n -t 4.000000 -s 2 -x 96.693319 -y 40.506118 -U 0.739674 -V -0.672966 -T 4.470459
n -t 4.000000 -s 8 -x 92.713111 -y 48.814653 -U -0.244769 -V -0.969581 -T 11.672048
n -t 4.000000 -s 7 -x 39.539591 -y 4.771702 -U 0.520371 -V 0.853940 -T 30.648902
n -t 4.000000 -s 9 -x 21.217091 -y 9.839244 -U 0.576130 -V 0.817358 -T 36.459715
n -t 4.000000 -s 4 -x 41.780250 -y 15.374345 -U 0.660813 -V 0.750551 -T 15.744357
n -t 4.000000 -s 2 -x 96.693319 -y 40.506118 -U -0.370313 -V -0.928907 -T 13.463205
n -t 4.000000 -s 3 -x 31.598014 -y 47.349422 -U 0.984239 -V -0.176841 -T 3.610464
n -t 4.000000 -s 3 -x 31.598014 -y 47.349422 -U 0.809368 -V -0.587302 -T 8.127066
n -t 5.000000 -s 4 -x 42.441063 -y 16.124896 -U 0.000000 -V 0.000000 -T 0.000000
n -t 5.000000 -s 7 -x 40.059962 -y 5.625642 -U 0.000000 -V 0.000000 -T 0.000000
n -t 5.000000 -s 2 -x 96.323006 -y 39.577211 -U 0.000000 -V 0.000000 -T 0.000000
n -t 5.000000 -s 8 -x 92.468342 -y 47.845071 -U 0.000000 -V 0.000000 -T 0.000000
n -t 5.000000 -s 5 -x 41.157528 -y 26.084017 -U 0.000000 -V 0.000000 -T 0.000000
n -t 5.000000 -s 3 -x 32.407383 -y 46.762121 -U 0.000000 -V 0.000000 -T 0.000000
n -t 5.000000 -s 9 -x 21.793222 -y 10.656602 -U 0.000000 -V 0.000000 -T 0.000000
n -t 5.000000 -s 5 -x 41.157528 -y 26.084017 -U -0.938007 -V 0.346616 -T 0.915637
n -t 5.000000 -s 4 -x 42.441063 -y 16.124896 -U -0.467200 -V 0.884152 -T 2.252242
n -t 5.000000 -s 2 -x 96.323006 -y 39.577211 -U 0.933863 -V -0.357630 -T 3.937401
n -t 5.000000 -s 3 -x 32.407383 -y 46.762121 -U 0.785432 -V -0.618948 -T 10.047043
n -t 5.000000 -s 8 -x 92.468342 -y 47.845071 -U -0.337633 -V -0.941278 -T 10.279639
n -t 5.000000 -s 7 -x 40.059962 -y 5.625642 -U 0.502301 -V 0.864693 -T 30.800208
n -t 5.000000 -s 9 -x 21.793222 -y 10.656602 -U 0.267061 -V 0.963680 -T 16.338198
n -t 5.000000 -s 4 -x 42.441063 -y 16.124896 -U 0.630055 -V 0.776551 -T 15.775795
n -t 5.000000 -s 2 -x 96.323006 -y 39.577211 -U -0.426161 -V -0.904647 -T 12.189316
n -t 5.000000 -s 3 -x 32.407383 -y 46.762121 -U 0.785432 -V -0.618948 -T 5.047043
n -t 6.000000 -s 4 -x 43.071117 -y 16.901447 -U 0.000000 -V 0.000000 -T 0.000000
n -t 6.000000 -s 7 -x 40.562264 -y 6.490335 -U 0.000000 -V 0.000000 -T 0.000000
n -t 6.000000 -s 2 -x 95.896845 -y 38.672564 -U 0.000000 -V 0.000000 -T 0.000000
n -t 6.000000 -s 8 -x 92.130708 -y 46.903794 -U 0.000000 -V 0.000000 -T 0.000000
n -t 6.000000 -s 5 -x 40.298654 -y 26.401391 -U 0.000000 -V 0.000000 -T 0.000000
n -t 6.000000 -s 3 -x 33.192815 -y 46.143173 -U 0.000000 -V 0.000000 -T 0.000000
n -t 6.000000 -s 9 -x 22.060283 -y 11.620282 -U 0.000000 -V 0.000000 -T 0.000000
n -t 6.000000 -s 5 -x 40.298654 -y 26.401391 -U -0.905137 -V 0.425121 -T 2.125634
n -t 6.000000 -s 3 -x 33.192815 -y 46.143173 -U 0.740991 -V -0.671515 -T 6.993135
n -t 6.000000 -s 4 -x 43.071117 -y 16.901447 -U -0.544016 -V 0.839075 -T 3.014139
n -t 6.000000 -s 2 -x 95.896845 -y 38.672564 -U 0.999163 -V 0.040895 -T 4.106591
n -t 6.000000 -s 8 -x 92.130708 -y 46.903794 -U -0.443656 -V -0.896197 -T 8.997232
n -t 6.000000 -s 7 -x 40.562264 -y 6.490335 -U 0.484791 -V 0.874630 -T 30.964344
n -t 6.000000 -s 9 -x 22.060283 -y 11.620282 -U 0.137185 -V 0.990545 -T 15.834468
n -t 6.000000 -s 0 -x 83.770760 -y 66.562440 -U 0.103781 -V -0.994600 -T 42.091359
n -t 6.000000 -s 6 -x 49.263010 -y 82.125660 -U 0.180379 -V -0.983597 -T 34.984700
n -t 6.000000 -s 4 -x 43.071117 -y 16.901447 -U 0.599969 -V 0.800024 -T 15.838418
n -t 6.000000 -s 2 -x 95.896845 -y 38.672564 -U -0.485374 -V -0.874307 -T 10.983175
n -t 6.000000 -s 3 -x 33.192815 -y 46.143173 -U 0.740991 -V -0.671515 -T 1.993135
n -t 6.000000 -s 5 -x 40.298654 -y 26.401391 -U 0.000000 -V 0.000000 -T 0.000000
n -t 6.000000 -s 9 -x 22.060283 -y 11.620282 -U 0.000000 -V 0.000000 -T 0.000000
n -t 7.000000 -s 4 -x 43.671086 -y 17.701470 -U 0.000000 -V 0.000000 -T 0.000000
n -t 7.000000 -s 7 -x 41.047055 -y 7.364965 -U 0.000000 -V 0.000000 -T 0.000000
n -t 7.000000 -s 6 -x 49.443389 -y 81.142063 -U 0.000000 -V 0.000000 -T 0.000000
n -t 7.000000 -s 2 -x 95.411471 -y 37.798257 -U 0.000000 -V 0.000000 -T 0.000000
n -t 7.000000 -s 8 -x 91.687052 -y 46.007597 -U 0.000000 -V 0.000000 -T 0.000000
n -t 7.000000 -s 0 -x 83.874541 -y 65.567840 -U 0.000000 -V 0.000000 -T 0.000000
n -t 7.000000 -s 5 -x 40.298654 -y 26.401391 -U 0.000000 -V 0.000000 -T 0.000000
n -t 7.000000 -s 3 -x 33.933806 -y 45.471658 -U 0.000000 -V 0.000000 -T 0.000000
n -t 7.000000 -s 9 -x 22.060283 -y 11.620282 -U 0.000000 -V 0.000000 -T 0.000000
n -t 7.000000 -s 3 -x 33.933806 -y 45.471658 -U 0.740991 -V -0.671515 -T 5.993135
n -t 7.000000 -s 5 -x 40.298654 -y 26.401391 -U -0.905137 -V 0.425121 -T 2.125634
n -t 7.000000 -s 4 -x 43.671086 -y 17.701470 -U -0.585341 -V 0.810787 -T 3.753614
n -t 7.000000 -s 2 -x 95.411471 -y 37.798257 -U 0.936800 -V 0.349865 -T 4.898087
n -t 7.000000 -s 8 -x 91.687052 -y 46.007597 -U -0.561397 -V -0.827546 -T 7.849313
n -t 7.000000 -s 7 -x 41.047055 -y 7.364965 -U 0.467851 -V 0.883807 -T 31.140299
n -t 7.000000 -s 9 -x 22.060283 -y 11.620282 -U 0.137185 -V 0.990545 -T 15.834468
n -t 7.000000 -s 0 -x 83.874541 -y 65.567840 -U 0.084426 -V -0.996430 -T 40.342082
n -t 7.000000 -s 6 -x 49.443389 -y 81.142063 -U 0.188763 -V -0.982023 -T 32.700809
n -t 7.000000 -s 4 -x 43.671086 -y 17.701470 -U 0.570738 -V 0.821133 -T 15.929044
n -t 7.000000 -s 2 -x 95.411471 -y 37.798257 -U -0.547471 -V -0.836825 -T 9.851936
n -t 7.000000 -s 5 -x 40.298654 -y 26.401391 -U 0.000000 -V 0.000000 -T 0.000000
n -t 7.000000 -s 9 -x 22.060283 -y 11.620282 -U 0.000000 -V 0.000000 -T 0.000000
n -t 8.000000 -s 4 -x 44.241824 -y 18.522603 -U 0.000000 -V 0.000000 -T 0.000000
n -t 8.000000 -s 7 -x 41.514906 -y 8.248772 -U 0.000000 -V 0.000000 -T 0.000000
n -t 8.000000 -s 6 -x 49.632152 -y 80.160040 -U 0.000000 -V 0.000000 -T 0.000000
n -t 8.000000 -s 2 -x 94.864000 -y 36.961432 -U 0.000000 -V 0.000000 -T 0.000000
n -t 8.000000 -s 8 -x 91.125655 -y 45.180050 -U 0.000000 -V 0.000000 -T 0.000000
n -t 8.000000 -s 0 -x 83.958967 -y 64.571410 -U 0.000000 -V 0.000000 -T 0.000000
n -t 8.000000 -s 3 -x 34.674797 -y 44.800143 -U 0.000000 -V 0.000000 -T 0.000000
n -t 8.000000 -s 5 -x 40.298654 -y 26.401391 -U 0.000000 -V 0.000000 -T 0.000000
n -t 8.000000 -s 9 -x 22.060283 -y 11.620282 -U 0.000000 -V 0.000000 -T 0.000000
n -t 8.000000 -s 3 -x 34.674797 -y 44.800143 -U 0.740991 -V -0.671515 -T 4.993135
n -t 8.000000 -s 5 -x 40.298654 -y 26.401391 -U -0.905137 -V 0.425121 -T 2.125634
n -t 8.000000 -s 4 -x 44.241824 -y 18.522603 -U -0.610397 -V 0.792095 -T 4.464825
n -t 8.000000 -s 8 -x 91.125655 -y 45.180050 -U -0.685440 -V -0.728129 -T 6.862380
n -t 8.000000 -s 2 -x 94.864000 -y 36.961432 -U -0.611617 -V -0.791154 -T 13.802902
n -t 8.000000 -s 7 -x 41.514906 -y 8.248772 -U 0.451485 -V 0.892279 -T 31.327135
n -t 8.000000 -s 9 -x 22.060283 -y 11.620282 -U 0.137185 -V 0.990545 -T 15.834468
n -t 8.000000 -s 0 -x 83.958967 -y 64.571410 -U -0.705366 -V -0.708843 -T 20.072105
n -t 8.000000 -s 6 -x 49.632152 -y 80.160040 -U 0.198113 -V -0.980179 -T 30.419536
n -t 8.000000 -s 4 -x 44.241824 -y 18.522603 -U 0.542503 -V 0.840054 -T 16.044721
n -t 8.000000 -s 2 -x 94.864000 -y 36.961432 -U -0.611617 -V -0.791154 -T 8.802902
n -t 8.000000 -s 5 -x 40.298654 -y 26.401391 -U 0.000000 -V 0.000000 -T 0.000000
n -t 8.000000 -s 9 -x 22.060283 -y 11.620282 -U 0.000000 -V 0.000000 -T 0.000000
n -t 9.000000 -s 4 -x 44.784326 -y 19.362657 -U 0.000000 -V 0.000000 -T 0.000000
n -t 9.000000 -s 7 -x 41.966391 -y 9.141051 -U 0.000000 -V 0.000000 -T 0.000000
n -t 9.000000 -s 0 -x 83.253600 -y 63.862567 -U 0.000000 -V 0.000000 -T 0.000000
n -t 9.000000 -s 6 -x 49.830264 -y 79.179861 -U 0.000000 -V 0.000000 -T 0.000000
n -t 9.000000 -s 8 -x 90.440215 -y 44.451921 -U 0.000000 -V 0.000000 -T 0.000000
n -t 9.000000 -s 2 -x 94.252383 -y 36.170279 -U 0.000000 -V 0.000000 -T 0.000000
n -t 9.000000 -s 3 -x 35.415788 -y 44.128628 -U 0.000000 -V 0.000000 -T 0.000000
n -t 9.000000 -s 5 -x 40.298654 -y 26.401391 -U 0.000000 -V 0.000000 -T 0.000000
n -t 9.000000 -s 9 -x 22.060283 -y 11.620282 -U 0.000000 -V 0.000000 -T 0.000000
n -t 9.000000 -s 3 -x 35.415788 -y 44.128628 -U 0.740991 -V -0.671515 -T 3.993135
n -t 9.000000 -s 5 -x 40.298654 -y 26.401391 -U -0.905137 -V 0.425121 -T 2.125634
n -t 9.000000 -s 8 -x 90.440215 -y 44.451921 -U -0.804767 -V -0.593591 -T 6.059977
n -t 9.000000 -s 2 -x 94.252383 -y 36.170279 -U -0.676551 -V -0.736396 -T 12.843143
n -t 9.000000 -s 4 -x 44.784326 -y 19.362657 -U -0.626659 -V 0.779294 -T 5.146750
n -t 9.000000 -s 7 -x 41.966391 -y 9.141051 -U 0.435694 -V 0.900095 -T 31.523983
n -t 9.000000 -s 0 -x 83.253600 -y 63.862567 -U -0.739565 -V -0.673085 -T 18.132633
n -t 9.000000 -s 9 -x 22.060283 -y 11.620282 -U 0.137185 -V 0.990545 -T 15.834468
n -t 9.000000 -s 6 -x 49.830264 -y 79.179861 -U 0.208624 -V -0.977996 -T 28.141324
n -t 9.000000 -s 4 -x 44.784326 -y 19.362657 -U 0.515367 -V 0.856970 -T 16.182739
n -t 9.000000 -s 2 -x 94.252383 -y 36.170279 -U -0.676551 -V -0.736396 -T 7.843143
n -t 9.000000 -s 5 -x 40.298654 -y 26.401391 -U 0.000000 -V 0.000000 -T 0.000000
n -t 9.000000 -s 9 -x 22.060283 -y 11.620282 -U 0.000000 -V 0.000000 -T 0.000000
n -t 10.000000 -s 4 -x 45.299693 -y 20.219627 -U 0.000000 -V 0.000000 -T 0.000000
n -t 10.000000 -s 7 -x 42.402086 -y 10.041145 -U 0.000000 -V 0.000000 -T 0.000000
n -t 10.000000 -s 0 -x 82.514036 -y 63.189482 -U 0.000000 -V 0.000000 -T 0.000000
n -t 10.000000 -s 6 -x 50.038888 -y 78.201865 -U 0.000000 -V 0.000000 -T 0.000000
n -t 10.000000 -s 8 -x 89.635448 -y 43.858330 -U 0.000000 -V 0.000000 -T 0.000000
n -t 10.000000 -s 2 -x 93.575832 -y 35.433882 -U 0.000000 -V 0.000000 -T 0.000000
n -t 10.000000 -s 3 -x 36.156779 -y 43.457113 -U 0.000000 -V 0.000000 -T 0.000000
n -t 10.000000 -s 5 -x 40.298654 -y 26.401391 -U 0.000000 -V 0.000000 -T 0.000000
n -t 10.000000 -s 9 -x 22.060283 -y 11.620282 -U 0.000000 -V 0.000000 -T 0.000000
n -t 10.000000 -s 3 -x 36.156779 -y 43.457113 -U -0.959674 -V 0.281114 -T 5.708259
n -t 10.000000 -s 5 -x 40.298654 -y 26.401391 -U 0.605276 -V -0.796016 -T 2.152705
n -t 10.000000 -s 8 -x 89.635448 -y 43.858330 -U -0.903982 -V -0.427570 -T 5.454383
n -t 10.000000 -s 2 -x 93.575832 -y 35.433882 -U -0.740553 -V -0.671997 -T 11.978944
n -t 10.000000 -s 4 -x 45.299693 -y 20.219627 -U 0.489399 -V 0.872060 -T 21.340630
n -t 10.000000 -s 0 -x 82.514036 -y 63.189482 -U -0.777406 -V -0.628999 -T 16.243923
n -t 10.000000 -s 6 -x 50.038888 -y 78.201865 -U 0.220549 -V -0.975376 -T 25.866735
n -t 10.000000 -s 9 -x 22.060283 -y 11.620282 -U -0.275163 -V 0.961397 -T 20.074284
n -t 10.000000 -s 7 -x 42.402086 -y 10.041145 -U 0.666660 -V 0.745362 -T 42.241281
n -t 10.000000 -s 5 -x 40.298654 -y 26.401391 -U 0.779083 -V 0.626921 -T 14.824743
n -t 10.000000 -s 2 -x 93.575832 -y 35.433882 -U -0.740553 -V -0.671997 -T 6.978944
n -t 10.000000 -s 3 -x 36.156779 -y 43.457113 -U -0.959674 -V 0.281114 -T 0.708259
n -t 10.000000 -s 9 -x 22.060283 -y 11.620282 -U 0.000000 -V 0.000000 -T 0.000000
n -t 11.000000 -s 5 -x 41.077737 -y 27.028312 -U 0.000000 -V 0.000000 -T 0.000000
n -t 11.000000 -s 4 -x 45.789092 -y 21.091687 -U 0.000000 -V 0.000000 -T 0.000000
n -t 11.000000 -s 0 -x 81.736629 -y 62.560483 -U 0.000000 -V 0.000000 -T 0.000000
n -t 11.000000 -s 6 -x 50.259437 -y 77.226489 -U 0.000000 -V 0.000000 -T 0.000000
n -t 11.000000 -s 8 -x 88.731466 -y 43.430760 -U 0.000000 -V 0.000000 -T 0.000000
n -t 11.000000 -s 2 -x 92.835279 -y 34.761885 -U 0.000000 -V 0.000000 -T 0.000000
n -t 11.000000 -s 7 -x 43.068745 -y 10.786508 -U 0.000000 -V 0.000000 -T 0.000000
n -t 11.000000 -s 3 -x 35.477081 -y 43.656214 -U 0.000000 -V 0.000000 -T 0.000000
n -t 11.000000 -s 9 -x 22.060283 -y 11.620282 -U 0.000000 -V 0.000000 -T 0.000000
n -t 11.000000 -s 5 -x 41.077737 -y 27.028312 -U 0.483266 -V -0.875474 -T 1.172155
n -t 11.000000 -s 3 -x 35.477081 -y 43.656214 -U -0.959674 -V 0.281114 -T 5.000000
n -t 11.000000 -s 8 -x 88.731466 -y 43.430760 -U -0.969588 -V -0.244744 -T 5.038476
n -t 11.000000 -s 2 -x 92.835279 -y 34.761885 -U -0.801512 -V -0.597978 -T 11.215120
n -t 11.000000 -s 4 -x 45.789092 -y 21.091687 -U 0.464639 -V 0.885500 -T 21.516163
n -t 11.000000 -s 0 -x 81.736629 -y 62.560483 -U -0.818959 -V -0.573852 -T 14.418502
n -t 11.000000 -s 6 -x 50.259437 -y 77.226489 -U 0.234225 -V -0.972182 -T 23.596496
n -t 11.000000 -s 9 -x 22.060283 -y 11.620282 -U -0.275163 -V 0.961397 -T 20.074284
n -t 11.000000 -s 7 -x 43.068745 -y 10.786508 -U 0.646744 -V 0.762707 -T 41.183729
n -t 11.000000 -s 5 -x 41.077737 -y 27.028312 -U 0.746359 -V 0.665543 -T 14.707127
n -t 11.000000 -s 2 -x 92.835279 -y 34.761885 -U -0.801512 -V -0.597978 -T 6.215120
n -t 11.000000 -s 3 -x 35.477081 -y 43.656214 -U -0.945755 -V 0.324879 -T 2.107928
n -t 11.000000 -s 9 -x 22.060283 -y 11.620282 -U 0.000000 -V 0.000000 -T 0.000000
n -t 12.000000 -s 5 -x 41.824096 -y 27.693855 -U 0.000000 -V 0.000000 -T 0.000000
n -t 12.000000 -s 4 -x 46.253731 -y 21.977187 -U 0.000000 -V 0.000000 -T 0.000000
n -t 12.000000 -s 0 -x 80.917670 -y 61.986631 -U 0.000000 -V 0.000000 -T 0.000000
n -t 12.000000 -s 6 -x 50.493662 -y 76.254307 -U 0.000000 -V 0.000000 -T 0.000000
n -t 12.000000 -s 8 -x 87.761878 -y 43.186016 -U 0.000000 -V 0.000000 -T 0.000000
n -t 12.000000 -s 2 -x 92.033766 -y 34.163907 -U 0.000000 -V 0.000000 -T 0.000000
n -t 12.000000 -s 7 -x 43.715490 -y 11.549215 -U 0.000000 -V 0.000000 -T 0.000000
n -t 12.000000 -s 3 -x 34.531325 -y 43.981094 -U 0.000000 -V 0.000000 -T 0.000000
n -t 12.000000 -s 9 -x 22.060283 -y 11.620282 -U 0.000000 -V 0.000000 -T 0.000000
n -t 12.000000 -s 5 -x 41.824096 -y 27.693855 -U -0.341942 -V -0.939721 -T 0.401627
n -t 12.000000 -s 3 -x 34.531325 -y 43.981094 -U -0.962837 -V 0.270083 -T 4.001318
n -t 12.000000 -s 8 -x 87.761878 -y 43.186016 -U -0.997803 -V -0.066246 -T 4.784728
n -t 12.000000 -s 2 -x 92.033766 -y 34.163907 -U -0.857103 -V -0.515146 -T 10.554286
n -t 12.000000 -s 4 -x 46.253731 -y 21.977187 -U 0.441103 -V 0.897457 -T 21.707332
n -t 12.000000 -s 0 -x 80.917670 -y 61.986631 -U -0.863766 -V -0.503894 -T 12.673154
n -t 12.000000 -s 6 -x 50.493662 -y 76.254307 -U 0.250110 -V -0.968217 -T 21.331569
n -t 12.000000 -s 9 -x 22.060283 -y 11.620282 -U -0.275163 -V 0.961397 -T 20.074284
n -t 12.000000 -s 7 -x 43.715490 -y 11.549215 -U 0.625821 -V 0.779967 -T 40.155331
n -t 12.000000 -s 5 -x 41.824096 -y 27.693855 -U 0.713193 -V 0.700967 -T 14.636750
n -t 12.000000 -s 2 -x 92.033766 -y 34.163907 -U -0.857103 -V -0.515146 -T 5.554286
n -t 12.000000 -s 3 -x 34.531325 -y 43.981094 -U -0.936318 -V 0.351152 -T 3.224334
n -t 12.000000 -s 9 -x 22.060283 -y 11.620282 -U 0.000000 -V 0.000000 -T 0.000000
n -t 13.000000 -s 5 -x 42.537290 -y 28.394822 -U 0.000000 -V 0.000000 -T 0.000000
n -t 13.000000 -s 4 -x 46.694833 -y 22.874644 -U 0.000000 -V 0.000000 -T 0.000000
n -t 13.000000 -s 0 -x 80.053905 -y 61.482737 -U 0.000000 -V 0.000000 -T 0.000000
n -t 13.000000 -s 6 -x 50.743772 -y 75.286089 -U 0.000000 -V 0.000000 -T 0.000000
n -t 13.000000 -s 8 -x 86.764075 -y 43.119770 -U 0.000000 -V 0.000000 -T 0.000000
n -t 13.000000 -s 2 -x 91.176664 -y 33.648761 -U 0.000000 -V 0.000000 -T 0.000000
n -t 13.000000 -s 7 -x 44.341310 -y 12.329182 -U 0.000000 -V 0.000000 -T 0.000000
n -t 13.000000 -s 3 -x 33.595007 -y 44.332246 -U 0.000000 -V 0.000000 -T 0.000000
n -t 13.000000 -s 9 -x 22.060283 -y 11.620282 -U 0.000000 -V 0.000000 -T 0.000000
n -t 13.000000 -s 5 -x 42.537290 -y 28.394822 -U -0.959912 -V 0.280303 -T 0.841705
n -t 13.000000 -s 3 -x 33.595007 -y 44.332246 -U -0.970106 -V 0.242680 -T 3.006164
n -t 13.000000 -s 8 -x 86.764075 -y 43.119770 -U -0.995906 -V 0.090395 -T 4.654030
n -t 13.000000 -s 2 -x 91.176664 -y 33.648761 -U -0.905098 -V -0.425203 -T 9.996227
n -t 13.000000 -s 4 -x 46.694833 -y 22.874644 -U 0.418788 -V 0.908084 -T 21.912343
n -t 13.000000 -s 0 -x 80.053905 -y 61.482737 -U -0.910232 -V -0.414099 -T 11.030491
n -t 13.000000 -s 6 -x 50.743772 -y 75.286089 -U 0.268842 -V -0.963184 -T 19.073258
n -t 13.000000 -s 9 -x 22.060283 -y 11.620282 -U -0.275163 -V 0.961397 -T 20.074284
n -t 13.000000 -s 7 -x 44.341310 -y 12.329182 -U 0.810814 -V 0.585304 -T 29.162869
n -t 13.000000 -s 5 -x 42.537290 -y 28.394822 -U 0.679988 -V 0.733223 -T 14.609411
n -t 13.000000 -s 2 -x 91.176664 -y 33.648761 -U -0.905098 -V -0.425203 -T 4.996227
n -t 13.000000 -s 8 -x 86.764075 -y 43.119770 -U 0.000000 -V 0.000000 -T 0.000000
n -t 13.000000 -s 7 -x 44.341310 -y 12.329182 -U 0.000000 -V 0.000000 -T 0.000000
n -t 13.000000 -s 3 -x 33.595007 -y 44.332246 -U -0.929756 -V 0.368177 -T 4.344675
n -t 13.000000 -s 9 -x 22.060283 -y 11.620282 -U 0.000000 -V 0.000000 -T 0.000000
n -t 14.000000 -s 5 -x 43.217278 -y 29.128045 -U 0.000000 -V 0.000000 -T 0.000000
n -t 14.000000 -s 4 -x 47.113622 -y 23.782728 -U 0.000000 -V 0.000000 -T 0.000000
n -t 14.000000 -s 0 -x 79.143673 -y 61.068639 -U 0.000000 -V 0.000000 -T 0.000000
n -t 14.000000 -s 6 -x 51.012614 -y 74.322905 -U 0.000000 -V 0.000000 -T 0.000000
n -t 14.000000 -s 8 -x 86.764075 -y 43.119770 -U 0.000000 -V 0.000000 -T 0.000000
n -t 14.000000 -s 2 -x 90.271566 -y 33.223558 -U 0.000000 -V 0.000000 -T 0.000000
n -t 14.000000 -s 7 -x 44.341310 -y 12.329182 -U 0.000000 -V 0.000000 -T 0.000000
n -t 14.000000 -s 3 -x 32.665251 -y 44.700422 -U 0.000000 -V 0.000000 -T 0.000000
n -t 14.000000 -s 9 -x 22.060283 -y 11.620282 -U 0.000000 -V 0.000000 -T 0.000000
n -t 14.000000 -s 5 -x 43.217278 -y 29.128045 -U -0.870545 -V 0.492089 -T 1.660324
n -t 14.000000 -s 2 -x 90.271566 -y 33.223558 -U -0.905098 -V -0.425203 -T 8.996227
n -t 14.000000 -s 8 -x 86.764075 -y 43.119770 -U -0.995906 -V 0.090395 -T 4.654030
n -t 14.000000 -s 3 -x 32.665251 -y 44.700422 -U -0.925046 -V 0.379855 -T 10.467048
n -t 14.000000 -s 0 -x 79.143673 -y 61.068639 -U -0.954496 -V -0.298222 -T 9.520737
n -t 14.000000 -s 4 -x 47.113622 -y 23.782728 -U 0.397676 -V 0.917526 -T 22.129596
n -t 14.000000 -s 6 -x 51.012614 -y 74.322905 -U 0.291345 -V -0.956618 -T 16.823394
n -t 14.000000 -s 7 -x 44.341310 -y 12.329182 -U 0.810814 -V 0.585304 -T 29.162869
n -t 14.000000 -s 9 -x 22.060283 -y 11.620282 -U -0.499724 -V 0.866184 -T 26.453915
n -t 14.000000 -s 5 -x 43.217278 -y 29.128045 -U 0.647100 -V 0.762405 -T 14.621008
n -t 14.000000 -s 2 -x 90.271566 -y 33.223558 -U -0.943746 -V -0.330672 -T 4.537555
n -t 14.000000 -s 8 -x 86.764075 -y 43.119770 -U 0.000000 -V 0.000000 -T 0.000000
n -t 14.000000 -s 7 -x 44.341310 -y 12.329182 -U 0.000000 -V 0.000000 -T 0.000000
n -t 14.000000 -s 3 -x 32.665251 -y 44.700422 -U -0.925046 -V 0.379855 -T 5.467048
n -t 15.000000 -s 5 -x 43.864378 -y 29.890450 -U 0.000000 -V 0.000000 -T 0.000000
n -t 15.000000 -s 0 -x 78.189176 -y 60.770416 -U 0.000000 -V 0.000000 -T 0.000000
n -t 15.000000 -s 4 -x 47.511297 -y 24.700254 -U 0.000000 -V 0.000000 -T 0.000000
n -t 15.000000 -s 6 -x 51.303959 -y 73.366287 -U 0.000000 -V 0.000000 -T 0.000000
n -t 15.000000 -s 2 -x 89.327820 -y 32.892887 -U 0.000000 -V 0.000000 -T 0.000000
n -t 15.000000 -s 8 -x 86.764075 -y 43.119770 -U 0.000000 -V 0.000000 -T 0.000000
n -t 15.000000 -s 7 -x 44.341310 -y 12.329182 -U 0.000000 -V 0.000000 -T 0.000000
n -t 15.000000 -s 3 -x 31.740205 -y 45.080278 -U 0.000000 -V 0.000000 -T 0.000000
n -t 15.000000 -s 9 -x 21.560558 -y 12.486466 -U 0.000000 -V 0.000000 -T 0.000000
n -t 15.000000 -s 5 -x 43.864378 -y 29.890450 -U -0.831615 -V 0.555353 -T 2.464990
n -t 15.000000 -s 2 -x 89.327820 -y 32.892887 -U -0.899605 -V -0.436705 -T 8.002092
n -t 15.000000 -s 8 -x 86.764075 -y 43.119770 -U -0.995906 -V 0.090395 -T 4.654030
n -t 15.000000 -s 3 -x 31.740205 -y 45.080278 -U -0.921564 -V 0.388226 -T 11.590559
n -t 15.000000 -s 0 -x 78.189176 -y 60.770416 -U -0.988699 -V -0.149917 -T 8.182928
n -t 15.000000 -s 6 -x 51.303959 -y 73.366287 -U 0.319009 -V -0.947752 -T 14.584649
n -t 15.000000 -s 4 -x 47.511297 -y 24.700254 -U 0.377736 -V 0.925913 -T 22.357674
n -t 15.000000 -s 7 -x 44.341310 -y 12.329182 -U 0.810814 -V 0.585304 -T 29.162869
n -t 15.000000 -s 9 -x 21.560558 -y 12.486466 -U -0.537881 -V 0.843021 -T 27.225231
n -t 15.000000 -s 5 -x 43.864378 -y 29.890450 -U 0.614829 -V 0.788661 -T 14.667614
n -t 15.000000 -s 2 -x 89.327820 -y 32.892887 -U -0.972092 -V -0.234600 -T 4.171810
n -t 15.000000 -s 8 -x 86.764075 -y 43.119770 -U 0.000000 -V 0.000000 -T 0.000000
n -t 15.000000 -s 7 -x 44.341310 -y 12.329182 -U 0.000000 -V 0.000000 -T 0.000000
n -t 15.000000 -s 3 -x 31.740205 -y 45.080278 -U -0.921564 -V 0.388226 -T 6.590559
n -t 16.000000 -s 5 -x 44.479207 -y 30.679111 -U 0.000000 -V 0.000000 -T 0.000000
n -t 16.000000 -s 0 -x 77.200478 -y 60.620500 -U 0.000000 -V 0.000000 -T 0.000000
n -t 16.000000 -s 6 -x 51.622968 -y 72.418535 -U 0.000000 -V 0.000000 -T 0.000000
n -t 16.000000 -s 4 -x 47.889033 -y 25.626167 -U 0.000000 -V 0.000000 -T 0.000000
n -t 16.000000 -s 2 -x 88.355728 -y 32.658287 -U 0.000000 -V 0.000000 -T 0.000000
n -t 16.000000 -s 8 -x 86.764075 -y 43.119770 -U 0.000000 -V 0.000000 -T 0.000000
n -t 16.000000 -s 7 -x 44.341310 -y 12.329182 -U 0.000000 -V 0.000000 -T 0.000000
n -t 16.000000 -s 3 -x 30.818641 -y 45.468504 -U 0.000000 -V 0.000000 -T 0.000000
n -t 16.000000 -s 9 -x 21.022678 -y 13.329487 -U 0.000000 -V 0.000000 -T 0.000000
n -t 16.000000 -s 2 -x 88.355728 -y 32.658287 -U -0.885926 -V -0.463827 -T 7.028385
n -t 16.000000 -s 8 -x 86.764075 -y 43.119770 -U -0.995906 -V 0.090395 -T 4.654030
n -t 16.000000 -s 5 -x 44.479207 -y 30.679111 -U -0.810563 -V 0.585652 -T 3.235020
n -t 16.000000 -s 3 -x 30.818641 -y 45.468504 -U -0.918922 -V 0.394438 -T 12.714750
n -t 16.000000 -s 0 -x 77.200478 -y 60.620500 -U -0.999435 -V 0.033622 -T 7.063180
n -t 16.000000 -s 6 -x 51.622968 -y 72.418535 -U 0.354028 -V -0.935235 -T 12.361129
n -t 16.000000 -s 4 -x 47.889033 -y 25.626167 -U 0.358929 -V 0.933365 -T 22.595319
n -t 16.000000 -s 7 -x 44.341310 -y 12.329182 -U 0.810814 -V 0.585304 -T 29.162869
n -t 16.000000 -s 9 -x 21.022678 -y 13.329487 -U -0.081765 -V 0.996652 -T 23.089379
n -t 16.000000 -s 5 -x 44.479207 -y 30.679111 -U 0.583421 -V 0.812170 -T 14.745529
n -t 16.000000 -s 2 -x 88.355728 -y 32.658287 -U -0.990134 -V -0.140121 -T 3.890019
n -t 16.000000 -s 8 -x 86.764075 -y 43.119770 -U 0.000000 -V 0.000000 -T 0.000000
n -t 16.000000 -s 7 -x 44.341310 -y 12.329182 -U 0.000000 -V 0.000000 -T 0.000000
n -t 16.000000 -s 3 -x 30.818641 -y 45.468504 -U -0.918922 -V 0.394438 -T 7.714750