n -t * -s 0  -x 65.904949999999999 -y 22.292870000000001 -Z 0 -z 1  -v circle -c black
n -t * -s 1  -x 50.051119999999997 -y 15.51394 -Z 0 -z 1  -v circle -c black
n -t * -s 2  -x 9.7630569999999999 -y 16.047219999999999 -Z 0 -z 1  -v circle -c black
n -t * -s 3  -x 30.284120000000001 -y 92.340090000000004 -Z 0 -z 1  -v circle -c black
n -t * -s 4  -x 8.2046589999999995 -y 2.476604 -Z 0 -z 1  -v circle -c black
n -t * -s 5  -x 48.237780000000001 -y 79.17801 -Z 0 -z 1  -v circle -c black
n -t * -s 6  -x 31.256229999999999 -y 95.546800000000005 -Z 0 -z 1  -v circle -c black
n -t * -s 7  -x 27.697220000000002 -y 76.010230000000007 -Z 0 -z 1  -v circle -c black
n -t * -s 8  -x 21.67642 -y 31.811360000000001 -Z 0 -z 1  -v circle -c black
n -t * -s 9  -x 97.04768 -y 26.58502 -Z 0 -z 1  -v circle -c black
n -t * -s 10  -x 53.735770000000002 -y 37.061549999999997 -Z 0 -z 1  -v circle -c black
n -t * -s 11  -x 28.360499999999998 -y 25.433240000000001 -Z 0 -z 1  -v circle -c black
n -t * -s 12  -x 31.7971 -y 49.438189999999999 -Z 0 -z 1  -v circle -c black
n -t * -s 13  -x 76.355959999999996 -y 69.079099999999997 -Z 0 -z 1  -v circle -c black
n -t * -s 14  -x 14.489699999999999 -y 36.5137 -Z 0 -z 1  -v circle -c black
n -t * -s 15  -x 8.8728350000000002 -y 15.756489999999999 -Z 0 -z 1  -v circle -c black
n -t * -s 16  -x 85.654780000000002 -y 91.989059999999995 -Z 0 -z 1  -v circle -c black
n -t * -s 17  -x 49.991230000000002 -y 55.7134 -Z 0 -z 1  -v circle -c black
n -t * -s 18  -x 48.936570000000003 -y 20.551580000000001 -Z 0 -z 1  -v circle -c black
n -t * -s 19  -x 77.929940000000002 -y 39.016109999999998 -Z 0 -z 1  -v circle -c black
n -t * -s 20  -x 64.86148 -y 42.072969999999998 -Z 0 -z 2  -v circle -c black
n -t * -s 21  -x 43.480060000000002 -y 55.663910000000001 -Z 0 -z 2  -v circle -c black
V -t * -v 1.0a5 -a 0
W -t * -x 100 -y 100
A -t * -n 1 -p 0 -o 0x7fffffff -c 30 -a 1
A -t * -h 1 -m 1073741823 -s 0
n -t 0 -s 20 -S COLOR -c red -o black -i red -I black
n -t 0 -s 21 -S COLOR -c red -o black -i red -I black
n -t 0.000000 -s 20 -x 64.861480 -y 42.072970 -U -0.134598 -V 0.769960 -T 31.393329
n -t 0.000000 -s 21 -x 43.480060 -y 55.663910 -U -0.581607 -V -0.424003 -T 20.076889
n -t 0.000000 -s 17 -x 49.991230 -y 55.713400 -U 0.823446 -V 0.567394 -T 0.884228
n -t 0.000000 -s 10 -x 53.735770 -y 37.061550 -U 0.911773 -V 0.410695 -T 12.202285
n -t 0.000000 -s 19 -x 77.929940 -y 39.016110 -U 0.331388 -V 0.943495 -T 3.239934
n -t 0.000000 -s 12 -x 31.797100 -y 49.438190 -U 0.882516 -V 0.470283 -T 13.238245
n -t 0.000000 -s 8 -x 21.676420 -y 31.811360 -U 0.619415 -V 0.785064 -T 12.368945
n -t 0.000000 -s 7 -x 27.697220 -y 76.010230 -U 0.255663 -V -0.966766 -T 6.417462
n -t 0.000000 -s 0 -x 65.904950 -y 22.292870 -U -0.181989 -V 0.983301 -T 5.733714
n -t 0.000000 -s 13 -x 76.355960 -y 69.079100 -U -0.666299 -V -0.745685 -T 17.251244
n -t 0.000000 -s 18 -x 48.936570 -y 20.551580 -U 0.234837 -V 0.972035 -T 7.591553
n -t 0.000000 -s 5 -x 48.237780 -y 79.178010 -U -0.452666 -V -0.891680 -T 10.510453
n -t 0.000000 -s 11 -x 28.360500 -y 25.433240 -U 0.684822 -V 0.728710 -T 22.078089
n -t 0.000000 -s 14 -x 14.489700 -y 36.513700 -U 0.612747 -V 0.790279 -T 24.232216
n -t 0.000000 -s 9 -x 97.047680 -y 26.585020 -U -0.997230 -V 0.074378 -T 18.094183
n -t 0.000000 -s 1 -x 50.051120 -y 15.513940 -U 0.025152 -V 0.999684 -T 26.567435
n -t 0.000000 -s 3 -x 30.284120 -y 92.340090 -U 0.803270 -V -0.595616 -T 60.651494
n -t 0.000000 -s 6 -x 31.256230 -y 95.546800 -U 0.715540 -V -0.698572 -T 36.847667
n -t 0.000000 -s 10 -x 53.735770 -y 37.061550 -U 0.911773 -V 0.410695 -T 7.202285
n -t 0.000000 -s 12 -x 31.797100 -y 49.438190 -U 0.882516 -V 0.470283 -T 8.238245
n -t 1.000000 -s 17 -x 50.719344 -y 56.215106 -U 0.000000 -V 0.000000 -T 0.000000
n -t 1.000000 -s 10 -x 54.647543 -y 37.472245 -U 0.000000 -V 0.000000 -T 0.000000
n -t 1.000000 -s 19 -x 78.261328 -y 39.959605 -U 0.000000 -V 0.000000 -T 0.000000
n -t 1.000000 -s 0 -x 65.722961 -y 23.276171 -U 0.000000 -V 0.000000 -T 0.000000
n -t 1.000000 -s 13 -x 75.689661 -y 68.333415 -U 0.000000 -V 0.000000 -T 0.000000
n -t 1.000000 -s 18 -x 49.171407 -y 21.523615 -U 0.000000 -V 0.000000 -T 0.000000
n -t 1.000000 -s 9 -x 96.050450 -y 26.659398 -U 0.000000 -V 0.000000 -T 0.000000
n -t 1.000000 -s 1 -x 50.076272 -y 16.513624 -U 0.000000 -V 0.000000 -T 0.000000
n -t 1.000000 -s 3 -x 31.087390 -y 91.744474 -U 0.000000 -V 0.000000 -T 0.000000
n -t 1.000000 -s 12 -x 32.679616 -y 49.908473 -U 0.000000 -V 0.000000 -T 0.000000
n -t 1.000000 -s 8 -x 22.295835 -y 32.596424 -U 0.000000 -V 0.000000 -T 0.000000
n -t 1.000000 -s 7 -x 27.952883 -y 75.043464 -U 0.000000 -V 0.000000 -T 0.000000
n -t 1.000000 -s 5 -x 47.785114 -y 78.286330 -U 0.000000 -V 0.000000 -T 0.000000
n -t 1.000000 -s 11 -x 29.045322 -y 26.161950 -U 0.000000 -V 0.000000 -T 0.000000
n -t 1.000000 -s 14 -x 15.102447 -y 37.303979 -U 0.000000 -V 0.000000 -T 0.000000
n -t 1.000000 -s 6 -x 31.971770 -y 94.848228 -U 0.000000 -V 0.000000 -T 0.000000
n -t 1.000000 -s 17 -x 50.719344 -y 56.215106 -U -0.172200 -V 0.985062 -T 0.781636
n -t 1.000000 -s 10 -x 54.647543 -y 37.472245 -U 0.882533 -V 0.470250 -T 11.420917
n -t 1.000000 -s 12 -x 32.679616 -y 49.908473 -U 0.886590 -V 0.462557 -T 11.526006
n -t 1.000000 -s 19 -x 78.261328 -y 39.959605 -U 0.206229 -V 0.978504 -T 2.946668
n -t 1.000000 -s 8 -x 22.295835 -y 32.596424 -U 0.605051 -V 0.796187 -T 10.677581
n -t 1.000000 -s 7 -x 27.952883 -y 75.043464 -U 0.140506 -V -0.990080 -T 5.718147
n -t 1.000000 -s 13 -x 75.689661 -y 68.333415 -U -0.694783 -V -0.719219 -T 15.778706
n -t 1.000000 -s 0 -x 65.722961 -y 23.276171 -U -0.180602 -V 0.983556 -T 5.515317
n -t 1.000000 -s 18 -x 49.171407 -y 21.523615 -U 0.193211 -V 0.981157 -T 7.315014
n -t 1.000000 -s 5 -x 47.785114 -y 78.286330 -U -0.481110 -V -0.876660 -T 10.157056
n -t 1.000000 -s 11 -x 29.045322 -y 26.161950 -U 0.680033 -V 0.733181 -T 20.371254
n -t 1.000000 -s 14 -x 15.102447 -y 37.303979 -U 0.605718 -V 0.795680 -T 22.541643
n -t 1.000000 -s 9 -x 96.050450 -y 26.659398 -U -0.993015 -V 0.117984 -T 17.302281
n -t 1.000000 -s 1 -x 50.076272 -y 16.513624 -U 0.272559 -V 0.962139 -T 25.551556
n -t 1.000000 -s 3 -x 31.087390 -y 91.744474 -U 0.808663 -V -0.588273 -T 59.087228
n -t 1.000000 -s 6 -x 31.971770 -y 94.848228 -U 0.701525 -V -0.712645 -T 35.734749
n -t 1.000000 -s 10 -x 54.647543 -y 37.472245 -U 0.882533 -V 0.470250 -T 6.420917
n -t 1.000000 -s 12 -x 32.679616 -y 49.908473 -U 0.886590 -V 0.462557 -T 6.526006
n -t 2.000000 -s 17 -x 50.584746 -y 56.985066 -U 0.000000 -V 0.000000 -T 0.000000
n -t 2.000000 -s 10 -x 55.530076 -y 37.942495 -U 0.000000 -V 0.000000 -T 0.000000
n -t 2.000000 -s 19 -x 78.467557 -y 40.938108 -U 0.000000 -V 0.000000 -T 0.000000
n -t 2.000000 -s 13 -x 74.994878 -y 67.614196 -U 0.000000 -V 0.000000 -T 0.000000
n -t 2.000000 -s 0 -x 65.542359 -y 24.259727 -U 0.000000 -V 0.000000 -T 0.000000
n -t 2.000000 -s 18 -x 49.364617 -y 22.504772 -U 0.000000 -V 0.000000 -T 0.000000
n -t 2.000000 -s 9 -x 95.057434 -y 26.777383 -U 0.000000 -V 0.000000 -T 0.000000
n -t 2.000000 -s 3 -x 31.896052 -y 91.156201 -U 0.000000 -V 0.000000 -T 0.000000
n -t 2.000000 -s 12 -x 33.566205 -y 50.371030 -U 0.000000 -V 0.000000 -T 0.000000
n -t 2.000000 -s 8 -x 22.900886 -y 33.392611 -U 0.000000 -V 0.000000 -T 0.000000
n -t 2.000000 -s 7 -x 28.093389 -y 74.053384 -U 0.000000 -V 0.000000 -T 0.000000
n -t 2.000000 -s 5 -x 47.304004 -y 77.409669 -U 0.000000 -V 0.000000 -T 0.000000
n -t 2.000000 -s 11 -x 29.725355 -y 26.895132 -U 0.000000 -V 0.000000 -T 0.000000
n -t 2.000000 -s 14 -x 15.708165 -y 38.099659 -U 0.000000 -V 0.000000 -T 0.000000
n -t 2.000000 -s 1 -x 50.348831 -y 17.475763 -U 0.000000 -V 0.000000 -T 0.000000
n -t 2.000000 -s 6 -x 32.673295 -y 94.135583 -U 0.000000 -V 0.000000 -T 0.000000
n -t 2.000000 -s 17 -x 50.584746 -y 56.985066 -U -0.172200 -V 0.985062 -T 0.781636
n -t 2.000000 -s 12 -x 33.566205 -y 50.371030 -U 0.891575 -V 0.452874 -T 9.814816
n -t 2.000000 -s 10 -x 55.530076 -y 37.942495 -U 0.847724 -V 0.530437 -T 10.690042
n -t 2.000000 -s 19 -x 78.467557 -y 40.938108 -U 0.099277 -V 0.995060 -T 2.688061
n -t 2.000000 -s 8 -x 22.900886 -y 33.392611 -U 0.586602 -V 0.809875 -T 8.990466
n -t 2.000000 -s 7 -x 28.093389 -y 74.053384 -U 0.015958 -V -0.999873 -T 5.095994
n -t 2.000000 -s 13 -x 74.994878 -y 67.614196 -U -0.725811 -V -0.687895 -T 14.332383
n -t 2.000000 -s 0 -x 65.542359 -y 24.259727 -U -0.179363 -V 0.983783 -T 5.296929
n -t 2.000000 -s 18 -x 49.364617 -y 22.504772 -U 0.153975 -V 0.988075 -T 7.050056
n -t 2.000000 -s 5 -x 47.304004 -y 77.409669 -U -0.508202 -V -0.861238 -T 9.813349
n -t 2.000000 -s 11 -x 29.725355 -y 26.895132 -U 0.674591 -V 0.738192 -T 18.665381
n -t 2.000000 -s 14 -x 15.708165 -y 38.099659 -U 0.597830 -V 0.801623 -T 20.852999
n -t 2.000000 -s 9 -x 95.057434 -y 26.777383 -U -0.986659 -V 0.162803 -T 16.543732
n -t 2.000000 -s 1 -x 50.348831 -y 17.475763 -U 0.254704 -V 0.967019 -T 23.989193
n -t 2.000000 -s 3 -x 31.896052 -y 91.156201 -U 0.814184 -V -0.580607 -T 57.528004
n -t 2.000000 -s 6 -x 32.673295 -y 94.135583 -U 0.686729 -V -0.726914 -T 34.636219
n -t 2.000000 -s 10 -x 55.530076 -y 37.942495 -U 0.847724 -V 0.530437 -T 5.690042
n -t 2.000000 -s 12 -x 33.566205 -y 50.371030 -U 0.891575 -V 0.452874 -T 4.814816
n -t 3.000000 -s 17 -x 50.450148 -y 57.755026 -U 0.000000 -V 0.000000 -T 0.000000
n -t 3.000000 -s 10 -x 56.377800 -y 38.472932 -U 0.000000 -V 0.000000 -T 0.000000
n -t 3.000000 -s 19 -x 78.566834 -y 41.933168 -U 0.000000 -V 0.000000 -T 0.000000
n -t 3.000000 -s 13 -x 74.269068 -y 66.926301 -U 0.000000 -V 0.000000 -T 0.000000
n -t 3.000000 -s 0 -x 65.362996 -y 25.243510 -U 0.000000 -V 0.000000 -T 0.000000
n -t 3.000000 -s 18 -x 49.518592 -y 23.492847 -U 0.000000 -V 0.000000 -T 0.000000
n -t 3.000000 -s 9 -x 94.070776 -y 26.940186 -U 0.000000 -V 0.000000 -T 0.000000
n -t 3.000000 -s 3 -x 32.710236 -y 90.575594 -U 0.000000 -V 0.000000 -T 0.000000
n -t 3.000000 -s 12 -x 34.457780 -y 50.823904 -U 0.000000 -V 0.000000 -T 0.000000
n -t 3.000000 -s 8 -x 23.487488 -y 34.202486 -U 0.000000 -V 0.000000 -T 0.000000
n -t 3.000000 -s 7 -x 28.109347 -y 73.053511 -U 0.000000 -V 0.000000 -T 0.000000
n -t 3.000000 -s 5 -x 46.795803 -y 76.548431 -U 0.000000 -V 0.000000 -T 0.000000
n -t 3.000000 -s 11 -x 30.399946 -y 27.633324 -U 0.000000 -V 0.000000 -T 0.000000
n -t 3.000000 -s 14 -x 16.305995 -y 38.901282 -U 0.000000 -V 0.000000 -T 0.000000
n -t 3.000000 -s 1 -x 50.603536 -y 18.442782 -U 0.000000 -V 0.000000 -T 0.000000
n -t 3.000000 -s 6 -x 33.360023 -y 93.408669 -U 0.000000 -V 0.000000 -T 0.000000
n -t 3.000000 -s 17 -x 50.450148 -y 57.755026 -U -0.172200 -V 0.985062 -T 0.781636
n -t 3.000000 -s 10 -x 56.377800 -y 38.472932 -U 0.036861 -V 0.999320 -T 2.202332
n -t 3.000000 -s 12 -x 34.457780 -y 50.823904 -U 0.891575 -V 0.452874 -T 8.814816
n -t 3.000000 -s 19 -x 78.566834 -y 41.933168 -U 0.013465 -V 0.999909 -T 2.449904
n -t 3.000000 -s 8 -x 23.487488 -y 34.202486 -U 0.586602 -V 0.809875 -T 7.990466
n -t 3.000000 -s 7 -x 28.109347 -y 73.053511 -U 0.015958 -V -0.999873 -T 4.095994
n -t 3.000000 -s 0 -x 65.362996 -y 25.243510 -U -0.047248 -V 0.998883 -T 19.160740
n -t 3.000000 -s 13 -x 74.269068 -y 66.926301 -U -0.759579 -V -0.650415 -T 12.916861
n -t 3.000000 -s 18 -x 49.518592 -y 23.492847 -U 0.117290 -V 0.993098 -T 6.794767
n -t 3.000000 -s 5 -x 46.795803 -y 76.548431 -U -0.508202 -V -0.861238 -T 8.813349
n -t 3.000000 -s 11 -x 30.399946 -y 27.633324 -U 0.674591 -V 0.738192 -T 17.665381
n -t 3.000000 -s 14 -x 16.305995 -y 38.901282 -U 0.597830 -V 0.801623 -T 19.852999
n -t 3.000000 -s 9 -x 94.070776 -y 26.940186 -U -0.977992 -V 0.208642 -T 15.819100
n -t 3.000000 -s 1 -x 50.603536 -y 18.442782 -U -0.011101 -V 0.999938 -T 25.941667
n -t 3.000000 -s 3 -x 32.710236 -y 90.575594 -U 0.819837 -V -0.572598 -T 55.974062
n -t 3.000000 -s 6 -x 33.360023 -y 93.408669 -U 0.686729 -V -0.726914 -T 33.636219
n -t 3.000000 -s 19 -x 78.566834 -y 41.933168 -U -0.985260 -V 0.171064 -T 9.320231
n -t 3.000000 -s 8 -x 23.487488 -y 34.202486 -U 0.655618 -V 0.755093 -T 17.934676
n -t 3.000000 -s 12 -x 34.457780 -y 50.823904 -U 0.897891 -V 0.440218 -T 3.105060
n -t 4.000000 -s 17 -x 50.315550 -y 58.524986 -U 0.000000 -V 0.000000 -T 0.000000
n -t 4.000000 -s 19 -x 77.581574 -y 42.104232 -U 0.000000 -V 0.000000 -T 0.000000
n -t 4.000000 -s 0 -x 65.315748 -y 26.242393 -U 0.000000 -V 0.000000 -T 0.000000
n -t 4.000000 -s 13 -x 73.509488 -y 66.275886 -U 0.000000 -V 0.000000 -T 0.000000
n -t 4.000000 -s 18 -x 49.635882 -y 24.485945 -U 0.000000 -V 0.000000 -T 0.000000
n -t 4.000000 -s 9 -x 93.092784 -y 27.148828 -U 0.000000 -V 0.000000 -T 0.000000
n -t 4.000000 -s 1 -x 50.592434 -y 19.442720 -U 0.000000 -V 0.000000 -T 0.000000
n -t 4.000000 -s 3 -x 33.530072 -y 90.002997 -U 0.000000 -V 0.000000 -T 0.000000
n -t 4.000000 -s 10 -x 56.414662 -y 39.472253 -U 0.000000 -V 0.000000 -T 0.000000
n -t 4.000000 -s 12 -x 35.355671 -y 51.264122 -U 0.000000 -V 0.000000 -T 0.000000
n -t 4.000000 -s 8 -x 24.143105 -y 34.957579 -U 0.000000 -V 0.000000 -T 0.000000
n -t 4.000000 -s 7 -x 28.125305 -y 72.053639 -U 0.000000 -V 0.000000 -T 0.000000
n -t 4.000000 -s 5 -x 46.287601 -y 75.687193 -U 0.000000 -V 0.000000 -T 0.000000
n -t 4.000000 -s 11 -x 31.074536 -y 28.371516 -U 0.000000 -V 0.000000 -T 0.000000
n -t 4.000000 -s 14 -x 16.903825 -y 39.702905 -U 0.000000 -V 0.000000 -T 0.000000
n -t 4.000000 -s 6 -x 34.046752 -y 92.681755 -U 0.000000 -V 0.000000 -T 0.000000
n -t 4.000000 -s 17 -x 50.315550 -y 58.524986 -U -0.172200 -V 0.985062 -T 0.781636
n -t 4.000000 -s 10 -x 56.414662 -y 39.472253 -U 0.036861 -V 0.999320 -T 1.202332
n -t 4.000000 -s 12 -x 35.355671 -y 51.264122 -U 0.890754 -V 0.454487 -T 7.814929
n -t 4.000000 -s 7 -x 28.125305 -y 72.053639 -U 0.015958 -V -0.999873 -T 3.095994
n -t 4.000000 -s 19 -x 77.581574 -y 42.104232 -U 0.278397 -V 0.960466 -T 3.174061
n -t 4.000000 -s 8 -x 24.143105 -y 34.957579 -U 0.576363 -V 0.817194 -T 6.994902
n -t 4.000000 -s 0 -x 65.315748 -y 26.242393 -U -0.052421 -V 0.998625 -T 18.936453
n -t 4.000000 -s 13 -x 73.509488 -y 66.275886 -U -0.796192 -V -0.605044 -T 11.537915
n -t 4.000000 -s 18 -x 49.635882 -y 24.485945 -U 0.083249 -V 0.996529 -T 6.547458
n -t 4.000000 -s 5 -x 46.287601 -y 75.687193 -U -0.508202 -V -0.861238 -T 7.813349
n -t 4.000000 -s 11 -x 31.074536 -y 28.371516 -U 0.674591 -V 0.738192 -T 16.665381
n -t 4.000000 -s 14 -x 16.903825 -y 39.702905 -U 0.597830 -V 0.801623 -T 18.852999
n -t 4.000000 -s 9 -x 93.092784 -y 27.148828 -U -0.966871 -V 0.255265 -T 15.128760
n -t 4.000000 -s 1 -x 50.592434 -y 19.442720 -U -0.016003 -V 0.999872 -T 25.713383
n -t 4.000000 -s 3 -x 33.530072 -y 90.002997 -U 0.825624 -V -0.564220 -T 54.425657
n -t 4.000000 -s 6 -x 34.046752 -y 92.681755 -U 0.686729 -V -0.726914 -T 32.636219
n -t 4.000000 -s 19 -x 77.581574 -y 42.104232 -U -0.974569 -V 0.224087 -T 8.604459
n -t 4.000000 -s 8 -x 24.143105 -y 34.957579 -U 0.655618 -V 0.755093 -T 16.934676
n -t 4.000000 -s 12 -x 35.355671 -y 51.264122 -U 0.906299 -V 0.422636 -T 1.397402
n -t 5.000000 -s 17 -x 50.180952 -y 59.294946 -U 0.000000 -V 0.000000 -T 0.000000
n -t 5.000000 -s 19 -x 76.607005 -y 42.328319 -U 0.000000 -V 0.000000 -T 0.000000
n -t 5.000000 -s 0 -x 65.263327 -y 27.241018 -U 0.000000 -V 0.000000 -T 0.000000
n -t 5.000000 -s 13 -x 72.713296 -y 65.670843 -U 0.000000 -V 0.000000 -T 0.000000
n -t 5.000000 -s 18 -x 49.719131 -y 25.482473 -U 0.000000 -V 0.000000 -T 0.000000
n -t 5.000000 -s 9 -x 92.125913 -y 27.404093 -U 0.000000 -V 0.000000 -T 0.000000
n -t 5.000000 -s 1 -x 50.576432 -y 20.442592 -U 0.000000 -V 0.000000 -T 0.000000
n -t 5.000000 -s 3 -x 34.355697 -y 89.438777 -U 0.000000 -V 0.000000 -T 0.000000
n -t 5.000000 -s 10 -x 56.451523 -y 40.471573 -U 0.000000 -V 0.000000 -T 0.000000
n -t 5.000000 -s 12 -x 36.261970 -y 51.686758 -U 0.000000 -V 0.000000 -T 0.000000
n -t 5.000000 -s 7 -x 28.141263 -y 71.053766 -U 0.000000 -V 0.000000 -T 0.000000
n -t 5.000000 -s 8 -x 24.798723 -y 35.712672 -U 0.000000 -V 0.000000 -T 0.000000
n -t 5.000000 -s 5 -x 45.779400 -y 74.825955 -U 0.000000 -V 0.000000 -T 0.000000
n -t 5.000000 -s 11 -x 31.749127 -y 29.109708 -U 0.000000 -V 0.000000 -T 0.000000
n -t 5.000000 -s 14 -x 17.501654 -y 40.504528 -U 0.000000 -V 0.000000 -T 0.000000
n -t 5.000000 -s 6 -x 34.733481 -y 91.954842 -U 0.000000 -V 0.000000 -T 0.000000
n -t 5.000000 -s 10 -x 56.451523 -y 40.471573 -U 0.036861 -V 0.999320 -T 0.202332
n -t 5.000000 -s 17 -x 50.180952 -y 59.294946 -U -0.172200 -V 0.985062 -T 0.781636
n -t 5.000000 -s 12 -x 36.261970 -y 51.686758 -U 0.888378 -V 0.459112 -T 6.815649
n -t 5.000000 -s 7 -x 28.141263 -y 71.053766 -U 0.015958 -V -0.999873 -T 2.095994
n -t 5.000000 -s 8 -x 24.798723 -y 35.712672 -U 0.562588 -V 0.826737 -T 6.000813
n -t 5.000000 -s 19 -x 76.607005 -y 42.328319 -U -0.960572 -V 0.278031 -T 12.928248
n -t 5.000000 -s 13 -x 72.713296 -y 65.670843 -U -0.835529 -V -0.549446 -T 10.202884
n -t 5.000000 -s 0 -x 65.263327 -y 27.241018 -U -0.230398 -V 0.973096 -T 4.665125
n -t 5.000000 -s 18 -x 49.719131 -y 25.482473 -U 0.051885 -V 0.998653 -T 6.306656
n -t 5.000000 -s 5 -x 45.779400 -y 74.825955 -U -0.508202 -V -0.861238 -T 6.813349
n -t 5.000000 -s 11 -x 31.749127 -y 29.109708 -U 0.674591 -V 0.738192 -T 15.665381
n -t 5.000000 -s 14 -x 17.501654 -y 40.504528 -U 0.597830 -V 0.801623 -T 17.852999
n -t 5.000000 -s 9 -x 92.125913 -y 27.404093 -U -0.953182 -V 0.302396 -T 14.472874
n -t 5.000000 -s 1 -x 50.576432 -y 20.442592 -U -0.020799 -V 0.999784 -T 25.485692
n -t 5.000000 -s 3 -x 34.355697 -y 89.438777 -U 0.831550 -V -0.555449 -T 52.883066
n -t 5.000000 -s 6 -x 34.733481 -y 91.954842 -U 0.686729 -V -0.726914 -T 31.636219
n -t 5.000000 -s 19 -x 76.607005 -y 42.328319 -U -0.960572 -V 0.278031 -T 7.928248
n -t 5.000000 -s 8 -x 24.798723 -y 35.712672 -U 0.655618 -V 0.755093 -T 15.934676
n -t 6.000000 -s 17 -x 50.046354 -y 60.064906 -U 0.000000 -V 0.000000 -T 0.000000
n -t 6.000000 -s 19 -x 75.646433 -y 42.606350 -U 0.000000 -V 0.000000 -T 0.000000
n -t 6.000000 -s 13 -x 71.877767 -y 65.121397 -U 0.000000 -V 0.000000 -T 0.000000
n -t 6.000000 -s 0 -x 65.032929 -y 28.214114 -U 0.000000 -V 0.000000 -T 0.000000
n -t 6.000000 -s 18 -x 49.771017 -y 26.481126 -U 0.000000 -V 0.000000 -T 0.000000
n -t 6.000000 -s 9 -x 91.172730 -y 27.706489 -U 0.000000 -V 0.000000 -T 0.000000
n -t 6.000000 -s 1 -x 50.555633 -y 21.442376 -U 0.000000 -V 0.000000 -T 0.000000
n -t 6.000000 -s 3 -x 35.187247 -y 88.883327 -U 0.000000 -V 0.000000 -T 0.000000
n -t 6.000000 -s 10 -x 56.458982 -y 40.673767 -U 0.000000 -V 0.000000 -T 0.000000
n -t 6.000000 -s 12 -x 37.150349 -y 52.145870 -U 0.000000 -V 0.000000 -T 0.000000
n -t 6.000000 -s 7 -x 28.157220 -y 70.053893 -U 0.000000 -V 0.000000 -T 0.000000
n -t 6.000000 -s 8 -x 25.454341 -y 36.467765 -U 0.000000 -V 0.000000 -T 0.000000
n -t 6.000000 -s 5 -x 45.271198 -y 73.964717 -U 0.000000 -V 0.000000 -T 0.000000
n -t 6.000000 -s 11 -x 32.423718 -y 29.847900 -U 0.000000 -V 0.000000 -T 0.000000
n -t 6.000000 -s 14 -x 18.099484 -y 41.306151 -U 0.000000 -V 0.000000 -T 0.000000
n -t 6.000000 -s 6 -x 35.420210 -y 91.227928 -U 0.000000 -V 0.000000 -T 0.000000
n -t 6.000000 -s 10 -x 56.458982 -y 40.673767 -U 0.000000 -V 0.000000 -T 0.000000
n -t 6.000000 -s 17 -x 50.046354 -y 60.064906 -U -0.172200 -V 0.985062 -T 0.781636
n -t 6.000000 -s 7 -x 28.157220 -y 70.053893 -U 0.015958 -V -0.999873 -T 1.095994
n -t 6.000000 -s 12 -x 37.150349 -y 52.145870 -U 0.888378 -V 0.459112 -T 5.815649
n -t 6.000000 -s 8 -x 25.454341 -y 36.467765 -U 0.543088 -V 0.839676 -T 5.009078
n -t 6.000000 -s 19 -x 75.646433 -y 42.606350 -U -0.943121 -V 0.332451 -T 12.291685
n -t 6.000000 -s 13 -x 71.877767 -y 65.121397 -U -0.877001 -V -0.480489 -T 8.921175
n -t 6.000000 -s 0 -x 65.032929 -y 28.214114 -U -0.220225 -V 0.975449 -T 4.445624
n -t 6.000000 -s 5 -x 45.271198 -y 73.964717 -U -0.508202 -V -0.861238 -T 5.813349
n -t 6.000000 -s 18 -x 49.771017 -y 26.481126 -U 0.023182 -V 0.999731 -T 6.071100
n -t 6.000000 -s 11 -x 32.423718 -y 29.847900 -U 0.674591 -V 0.738192 -T 14.665381
n -t 6.000000 -s 14 -x 18.099484 -y 41.306151 -U 0.597830 -V 0.801623 -T 16.852999
n -t 6.000000 -s 9 -x 91.172730 -y 27.706489 -U -0.936854 -V 0.349721 -T 13.851360
n -t 6.000000 -s 1 -x 50.555633 -y 21.442376 -U -0.025491 -V 0.999675 -T 25.258563
n -t 6.000000 -s 3 -x 35.187247 -y 88.883327 -U 0.837617 -V -0.546258 -T 51.346581
n -t 6.000000 -s 6 -x 35.420210 -y 91.227928 -U 0.686729 -V -0.726914 -T 30.636219
n -t 6.000000 -s 19 -x 75.646433 -y 42.606350 -U -0.943121 -V 0.332451 -T 7.291685
n -t 6.000000 -s 8 -x 25.454341 -y 36.467765 -U 0.655618 -V 0.755093 -T 14.934676
n -t 7.000000 -s 17 -x 49.911756 -y 60.834866 -U 0.000000 -V 0.000000 -T 0.000000
n -t 7.000000 -s 19 -x 74.703312 -y 42.938801 -U 0.000000 -V 0.000000 -T 0.000000
n -t 7.000000 -s 13 -x 71.000766 -y 64.640907 -U 0.000000 -V 0.000000 -T 0.000000
n -t 7.000000 -s 0 -x 64.812704 -y 29.189564 -U 0.000000 -V 0.000000 -T 0.000000
n -t 7.000000 -s 18 -x 49.794199 -y 27.480858 -U 0.000000 -V 0.000000 -T 0.000000
n -t 7.000000 -s 9 -x 90.235876 -y 28.056210 -U 0.000000 -V 0.000000 -T 0.000000
n -t 7.000000 -s 1 -x 50.530141 -y 22.442051 -U 0.000000 -V 0.000000 -T 0.000000
n -t 7.000000 -s 3 -x 36.024864 -y 88.337070 -U 0.000000 -V 0.000000 -T 0.000000
n -t 7.000000 -s 10 -x 56.458982 -y 40.673767 -U 0.000000 -V 0.000000 -T 0.000000
n -t 7.000000 -s 7 -x 28.173178 -y 69.054021 -U 0.000000 -V 0.000000 -T 0.000000
n -t 7.000000 -s 12 -x 38.038727 -y 52.604982 -U 0.000000 -V 0.000000 -T 0.000000
n -t 7.000000 -s 8 -x 26.109958 -y 37.222858 -U 0.000000 -V 0.000000 -T 0.000000
n -t 7.000000 -s 5 -x 44.762997 -y 73.103478 -U 0.000000 -V 0.000000 -T 0.000000
n -t 7.000000 -s 11 -x 33.098308 -y 30.586092 -U 0.000000 -V 0.000000 -T 0.000000
n -t 7.000000 -s 14 -x 18.697314 -y 42.107774 -U 0.000000 -V 0.000000 -T 0.000000
n -t 7.000000 -s 6 -x 36.106938 -y 90.501014 -U 0.000000 -V 0.000000 -T 0.000000
n -t 7.000000 -s 10 -x 56.458982 -y 40.673767 -U 0.000000 -V 0.000000 -T 0.000000
n -t 7.000000 -s 7 -x 28.173178 -y 69.054021 -U 0.015958 -V -0.999873 -T 0.095994
n -t 7.000000 -s 17 -x 49.911756 -y 60.834866 -U -0.172200 -V 0.985062 -T 0.781636
n -t 7.000000 -s 12 -x 38.038727 -y 52.604982 -U 0.888378 -V 0.459112 -T 4.815649
n -t 7.000000 -s 8 -x 26.109958 -y 37.222858 -U 0.513436 -V 0.858128 -T 4.021440
n -t 7.000000 -s 19 -x 74.703312 -y 42.938801 -U -0.922147 -V 0.386840 -T 11.694470
n -t 7.000000 -s 13 -x 71.000766 -y 64.640907 -U -0.919090 -V -0.394047 -T 7.704871
n -t 7.000000 -s 5 -x 44.762997 -y 73.103478 -U -0.508202 -V -0.861238 -T 4.813349
n -t 7.000000 -s 0 -x 64.812704 -y 29.189564 -U -0.211383 -V 0.977403 -T 4.226496
n -t 7.000000 -s 18 -x 49.794199 -y 27.480858 -U -0.002918 -V 0.999996 -T 5.839722
n -t 7.000000 -s 11 -x 33.098308 -y 30.586092 -U 0.674591 -V 0.738192 -T 13.665381
n -t 7.000000 -s 14 -x 18.697314 -y 42.107774 -U 0.597830 -V 0.801623 -T 15.852999
n -t 7.000000 -s 9 -x 90.235876 -y 28.056210 -U -0.917865 -V 0.396893 -T 13.263879
n -t 7.000000 -s 1 -x 50.530141 -y 22.442051 -U -0.030081 -V 0.999547 -T 25.031968
n -t 7.000000 -s 3 -x 36.024864 -y 88.337070 -U 0.843828 -V -0.536614 -T 49.816520
n -t 7.000000 -s 6 -x 36.106938 -y 90.501014 -U 0.686729 -V -0.726914 -T 29.636219
n -t 7.000000 -s 19 -x 74.703312 -y 42.938801 -U -0.922147 -V 0.386840 -T 6.694470
n -t 7.000000 -s 8 -x 26.109958 -y 37.222858 -U 0.655618 -V 0.755093 -T 13.934676
n -t 8.000000 -s 17 -x 49.777158 -y 61.604826 -U 0.000000 -V 0.000000 -T 0.000000
n -t 8.000000 -s 19 -x 73.781166 -y 43.325641 -U 0.000000 -V 0.000000 -T 0.000000
n -t 8.000000 -s 13 -x 70.081676 -y 64.246860 -U 0.000000 -V 0.000000 -T 0.000000
n -t 8.000000 -s 0 -x 64.601321 -y 30.166967 -U 0.000000 -V 0.000000 -T 0.000000
n -t 8.000000 -s 18 -x 49.791281 -y 28.480853 -U 0.000000 -V 0.000000 -T 0.000000
n -t 8.000000 -s 9 -x 89.318012 -y 28.453103 -U 0.000000 -V 0.000000 -T 0.000000
n -t 8.000000 -s 1 -x 50.500060 -y 23.441598 -U 0.000000 -V 0.000000 -T 0.000000
n -t 8.000000 -s 3 -x 36.868692 -y 87.800455 -U 0.000000 -V 0.000000 -T 0.000000
n -t 8.000000 -s 10 -x 56.458982 -y 40.673767 -U 0.000000 -V 0.000000 -T 0.000000
n -t 8.000000 -s 7 -x 28.174710 -y 68.958039 -U 0.000000 -V 0.000000 -T 0.000000
n -t 8.000000 -s 12 -x 38.927106 -y 53.064094 -U 0.000000 -V 0.000000 -T 0.000000
n -t 8.000000 -s 8 -x 26.765576 -y 37.977951 -U 0.000000 -V 0.000000 -T 0.000000
n -t 8.000000 -s 5 -x 44.254795 -y 72.242240 -U 0.000000 -V 0.000000 -T 0.000000
n -t 8.000000 -s 11 -x 33.772899 -y 31.324284 -U 0.000000 -V 0.000000 -T 0.000000
n -t 8.000000 -s 14 -x 19.295144 -y 42.909397 -U 0.000000 -V 0.000000 -T 0.000000
n -t 8.000000 -s 6 -x 36.793667 -y 89.774100 -U 0.000000 -V 0.000000 -T 0.000000
n -t 8.000000 -s 7 -x 28.174710 -y 68.958039 -U 0.000000 -V 0.000000 -T 0.000000
n -t 8.000000 -s 10 -x 56.458982 -y 40.673767 -U 0.000000 -V 0.000000 -T 0.000000
n -t 8.000000 -s 17 -x 49.777158 -y 61.604826 -U -0.172200 -V 0.985062 -T 0.781636
n -t 8.000000 -s 12 -x 38.927106 -y 53.064094 -U 0.888378 -V 0.459112 -T 3.815649
n -t 8.000000 -s 8 -x 26.765576 -y 37.977951 -U 0.463243 -V 0.886231 -T 3.041888
n -t 8.000000 -s 19 -x 73.781166 -y 43.325641 -U -0.897680 -V 0.440648 -T 11.135895
n -t 8.000000 -s 13 -x 70.081676 -y 64.246860 -U -0.958536 -V -0.284970 -T 6.569370
n -t 8.000000 -s 5 -x 44.254795 -y 72.242240 -U -0.508202 -V -0.861238 -T 3.813349
n -t 8.000000 -s 0 -x 64.601321 -y 30.166967 -U -0.203767 -V 0.979019 -T 4.007631
n -t 8.000000 -s 18 -x 49.791281 -y 28.480853 -U -0.026502 -V 0.999649 -T 5.611633
n -t 8.000000 -s 11 -x 33.772899 -y 31.324284 -U 0.674591 -V 0.738192 -T 12.665381
n -t 8.000000 -s 14 -x 19.295144 -y 42.909397 -U 0.597830 -V 0.801623 -T 14.852999
n -t 8.000000 -s 9 -x 89.318012 -y 28.453103 -U -0.896251 -V 0.443548 -T 12.709815
n -t 8.000000 -s 1 -x 50.500060 -y 23.441598 -U -0.034568 -V 0.999402 -T 24.805878
n -t 8.000000 -s 3 -x 36.868692 -y 87.800455 -U 0.850184 -V -0.526485 -T 48.293224
n -t 8.000000 -s 6 -x 36.793667 -y 89.774100 -U 0.686729 -V -0.726914 -T 28.636219
n -t 8.000000 -s 13 -x 70.081676 -y 64.246860 -U -0.575717 -V -0.817649 -T 10.937630
n -t 8.000000 -s 19 -x 73.781166 -y 43.325641 -U -0.897680 -V 0.440648 -T 6.135895
n -t 8.000000 -s 8 -x 26.765576 -y 37.977951 -U 0.655618 -V 0.755093 -T 12.934676
n -t 9.000000 -s 17 -x 49.642560 -y 62.374786 -U 0.000000 -V 0.000000 -T 0.000000
n -t 9.000000 -s 19 -x 72.883486 -y 43.766289 -U 0.000000 -V 0.000000 -T 0.000000
n -t 9.000000 -s 13 -x 69.505959 -y 63.429211 -U 0.000000 -V 0.000000 -T 0.000000
n -t 9.000000 -s 0 -x 64.397553 -y 31.145986 -U 0.000000 -V 0.000000 -T 0.000000
n -t 9.000000 -s 18 -x 49.764778 -y 29.480502 -U 0.000000 -V 0.000000 -T 0.000000
n -t 9.000000 -s 9 -x 88.421761 -y 28.896651 -U 0.000000 -V 0.000000 -T 0.000000
n -t 9.000000 -s 1 -x 50.465492 -y 24.441000 -U 0.000000 -V 0.000000 -T 0.000000
n -t 9.000000 -s 3 -x 37.718876 -y 87.273970 -U 0.000000 -V 0.000000 -T 0.000000
n -t 9.000000 -s 7 -x 28.174710 -y 68.958039 -U 0.000000 -V 0.000000 -T 0.000000
n -t 9.000000 -s 10 -x 56.458982 -y 40.673767 -U 0.000000 -V 0.000000 -T 0.000000
n -t 9.000000 -s 12 -x 39.815484 -y 53.523205 -U 0.000000 -V 0.000000 -T 0.000000
n -t 9.000000 -s 8 -x 27.421194 -y 38.733044 -U 0.000000 -V 0.000000 -T 0.000000
n -t 9.000000 -s 5 -x 43.746594 -y 71.381002 -U 0.000000 -V 0.000000 -T 0.000000
n -t 9.000000 -s 11 -x 34.447490 -y 32.062476 -U 0.000000 -V 0.000000 -T 0.000000
n -t 9.000000 -s 14 -x 19.892974 -y 43.711020 -U 0.000000 -V 0.000000 -T 0.000000
n -t 9.000000 -s 6 -x 37.480396 -y 89.047187 -U 0.000000 -V 0.000000 -T 0.000000
n -t 9.000000 -s 7 -x 28.174710 -y 68.958039 -U 0.000000 -V 0.000000 -T 0.000000
n -t 9.000000 -s 10 -x 56.458982 -y 40.673767 -U 0.000000 -V 0.000000 -T 0.000000
n -t 9.000000 -s 17 -x 49.642560 -y 62.374786 -U -0.172200 -V 0.985062 -T 0.781636
n -t 9.000000 -s 12 -x 39.815484 -y 53.523205 -U 0.888378 -V 0.459112 -T 2.815649
n -t 9.000000 -s 8 -x 27.421194 -y 38.733044 -U 0.361942 -V 0.932201 -T 2.081873
n -t 9.000000 -s 19 -x 72.883486 -y 43.766289 -U -0.869858 -V 0.493303 -T 10.614825
n -t 9.000000 -s 13 -x 69.505959 -y 63.429211 -U -0.998822 -V -0.048521 -T 5.862766
n -t 9.000000 -s 5 -x 43.746594 -y 71.381002 -U -0.508202 -V -0.861238 -T 2.813349
n -t 9.000000 -s 0 -x 64.397553 -y 31.145986 -U -0.197273 -V 0.980349 -T 3.788947
n -t 9.000000 -s 18 -x 49.764778 -y 29.480502 -U -0.047681 -V 0.998863 -T 5.386099
n -t 9.000000 -s 11 -x 34.447490 -y 32.062476 -U 0.674591 -V 0.738192 -T 11.665381
n -t 9.000000 -s 14 -x 19.892974 -y 43.711020 -U 0.597830 -V 0.801623 -T 13.852999
n -t 9.000000 -s 9 -x 88.421761 -y 28.896651 -U -0.872111 -V 0.489308 -T 12.188275
n -t 9.000000 -s 1 -x 50.465492 -y 24.441000 -U -0.038955 -V 0.999241 -T 24.580268
n -t 9.000000 -s 3 -x 37.718876 -y 87.273970 -U 0.856688 -V -0.515835 -T 46.777060
n -t 9.000000 -s 6 -x 37.480396 -y 89.047187 -U 0.686729 -V -0.726914 -T 27.636219
n -t 9.000000 -s 13 -x 69.505959 -y 63.429211 -U -0.622841 -V -0.782349 -T 9.401860
n -t 9.000000 -s 19 -x 72.883486 -y 43.766289 -U -0.869858 -V 0.493303 -T 5.614825
n -t 9.000000 -s 8 -x 27.421194 -y 38.733044 -U 0.655618 -V 0.755093 -T 11.934676
n -t 10.000000 -s 17 -x 49.507962 -y 63.144746 -U 0.000000 -V 0.000000 -T 0.000000
n -t 10.000000 -s 19 -x 72.013628 -y 44.259592 -U 0.000000 -V 0.000000 -T 0.000000
n -t 10.000000 -s 13 -x 68.883118 -y 62.646863 -U 0.000000 -V 0.000000 -T 0.000000
n -t 10.000000 -s 0 -x 64.200281 -y 32.126335 -U 0.000000 -V 0.000000 -T 0.000000
n -t 10.000000 -s 18 -x 49.717097 -y 30.479365 -U 0.000000 -V 0.000000 -T 0.000000
n -t 10.000000 -s 9 -x 87.549650 -y 29.385959 -U 0.000000 -V 0.000000 -T 0.000000
n -t 10.000000 -s 1 -x 50.426537 -y 25.440241 -U 0.000000 -V 0.000000 -T 0.000000
n -t 10.000000 -s 3 -x 38.575565 -y 86.758136 -U 0.000000 -V 0.000000 -T 0.000000
n -t 10.000000 -s 7 -x 28.174710 -y 68.958039 -U 0.000000 -V 0.000000 -T 0.000000
n -t 10.000000 -s 10 -x 56.458982 -y 40.673767 -U 0.000000 -V 0.000000 -T 0.000000