n -t * -s 0  -x 17.21895 -y 61.491579999999999 -Z 0 -z 1  -v circle -c black
n -t * -s 1  -x 42.459789999999998 -y 43.215699999999998 -Z 0 -z 1  -v circle -c black
n -t * -s 2  -x 13.805429999999999 -y 35.36421 -Z 0 -z 1  -v circle -c black
n -t * -s 3  -x 83.707679999999996 -y 35.834389999999999 -Z 0 -z 1  -v circle -c black
n -t * -s 4  -x 22.75526 -y 61.190550000000002 -Z 0 -z 1  -v circle -c black
n -t * -s 5  -x 26.331630000000001 -y 12.967219999999999 -Z 0 -z 1  -v circle -c black
n -t * -s 6  -x 63.056800000000003 -y 53.492330000000003 -Z 0 -z 1  -v circle -c black
n -t * -s 7  -x 2.996362 -y 21.58352 -Z 0 -z 1  -v circle -c black
n -t * -s 8  -x 51.999310000000001 -y 12.722770000000001 -Z 0 -z 1  -v circle -c black
n -t * -s 9  -x 84.757440000000003 -y 61.452060000000003 -Z 0 -z 1  -v circle -c black
n -t * -s 10  -x 33.290880000000001 -y 4.2181699999999998 -Z 0 -z 1  -v circle -c black
n -t * -s 11  -x 63.315150000000003 -y 58.586060000000003 -Z 0 -z 1  -v circle -c black
n -t * -s 12  -x 33.132359999999998 -y 72.082740000000001 -Z 0 -z 1  -v circle -c black
n -t * -s 13  -x 23.88485 -y 82.402159999999995 -Z 0 -z 1  -v circle -c black
n -t * -s 14  -x 58.292310000000001 -y 64.616600000000005 -Z 0 -z 1  -v circle -c black
n -t * -s 15  -x 86.271739999999994 -y 81.559870000000004 -Z 0 -z 1  -v circle -c black
n -t * -s 16  -x 6.390269 -y 87.507239999999996 -Z 0 -z 1  -v circle -c black
n -t * -s 17  -x 44.365639999999999 -y 19.807220000000001 -Z 0 -z 1  -v circle -c black
n -t * -s 18  -x 45.410080000000001 -y 5.1127320000000003 -Z 0 -z 1  -v circle -c black
n -t * -s 19  -x 45.00414 -y 55.813980000000001 -Z 0 -z 1  -v circle -c black
n -t * -s 20  -x 87.302610000000001 -y 99.135249999999999 -Z 0 -z 2  -v circle -c black
V -t * -v 1.0a5 -a 0
W -t * -x 100 -y 100
A -t * -n 1 -p 0 -o 0x7fffffff -c 30 -a 1
A -t * -h 1 -m 1073741823 -s 0
n -t 0 -s 20 -S COLOR -c red -o black -i red -I black
n -t 0.000000 -s 20 -x 87.302610 -y 99.135250 -U 0.119543 -V -0.719052 -T 65.234155
n -t 0.000000 -s 15 -x 86.271740 -y 81.559870 -U 0.287577 -V 0.957757 -T 3.584670
n -t 0.000000 -s 9 -x 84.757440 -y 61.452060 -U 0.067388 -V 0.997727 -T 37.769044
n -t 0.000000 -s 15 -x 86.271740 -y 81.559870 -U 0.097669 -V 0.995219 -T 10.554775
n -t 0.000000 -s 15 -x 86.271740 -y 81.559870 -U 0.058554 -V 0.998284 -T 17.605586
n -t 1.000000 -s 15 -x 86.330294 -y 82.558154 -U 0.000000 -V 0.000000 -T 0.000000
n -t 1.000000 -s 9 -x 84.824828 -y 62.449787 -U 0.000000 -V 0.000000 -T 0.000000
n -t 1.000000 -s 15 -x 86.330294 -y 82.558154 -U 0.536847 -V 0.843680 -T 2.033838
n -t 1.000000 -s 9 -x 84.824828 -y 62.449787 -U 0.072028 -V 0.997403 -T 36.060073
n -t 1.000000 -s 15 -x 86.330294 -y 82.558154 -U 0.123311 -V 0.992368 -T 8.854553
n -t 1.000000 -s 15 -x 86.330294 -y 82.558154 -U 0.068689 -V 0.997638 -T 15.895588
n -t 2.000000 -s 15 -x 86.398983 -y 83.555792 -U 0.000000 -V 0.000000 -T 0.000000
n -t 2.000000 -s 9 -x 84.896855 -y 63.447189 -U 0.000000 -V 0.000000 -T 0.000000
n -t 2.000000 -s 15 -x 86.398983 -y 83.555792 -U 1.000000 -V -0.000684 -T 1.142713
n -t 2.000000 -s 9 -x 84.896855 -y 63.447189 -U 0.076993 -V 0.997032 -T 34.351925
n -t 2.000000 -s 15 -x 86.398983 -y 83.555792 -U 0.159551 -V 0.987190 -T 7.162035
n -t 2.000000 -s 15 -x 86.398983 -y 83.555792 -U 0.080544 -V 0.996751 -T 14.187448
n -t 3.000000 -s 15 -x 86.479527 -y 84.552543 -U 0.000000 -V 0.000000 -T 0.000000
n -t 3.000000 -s 9 -x 84.973848 -y 64.444221 -U 0.000000 -V 0.000000 -T 0.000000
n -t 3.000000 -s 15 -x 86.479527 -y 84.552543 -U 0.567037 -V -0.823692 -T 2.084012
n -t 3.000000 -s 9 -x 84.973848 -y 64.444221 -U 0.082322 -V 0.996606 -T 32.644678
n -t 3.000000 -s 15 -x 86.479527 -y 84.552543 -U 0.215510 -V 0.976502 -T 5.483332
n -t 3.000000 -s 15 -x 86.479527 -y 84.552543 -U 0.094676 -V 0.995508 -T 12.481617
n -t 4.000000 -s 15 -x 86.574203 -y 85.548052 -U 0.000000 -V 0.000000 -T 0.000000
n -t 4.000000 -s 9 -x 85.056170 -y 65.440827 -U 0.000000 -V 0.000000 -T 0.000000
n -t 4.000000 -s 15 -x 86.574203 -y 85.548052 -U 0.331741 -V -0.943371 -T 3.637112
n -t 4.000000 -s 9 -x 85.056170 -y 65.440827 -U 0.088066 -V 0.996115 -T 30.938422
n -t 4.000000 -s 15 -x 86.574203 -y 85.548052 -U 0.314648 -V 0.949208 -T 3.834693
n -t 4.000000 -s 15 -x 86.574203 -y 85.548052 -U 0.111941 -V 0.993715 -T 10.778737
n -t 5.000000 -s 15 -x 86.686144 -y 86.541766 -U 0.000000 -V 0.000000 -T 0.000000
n -t 5.000000 -s 9 -x 85.144236 -y 66.436942 -U 0.000000 -V 0.000000 -T 0.000000
n -t 5.000000 -s 15 -x 86.686144 -y 86.541766 -U 0.133724 -V 0.991019 -T 9.079773
n -t 5.000000 -s 9 -x 85.144236 -y 66.436942 -U 0.181171 -V 0.983452 -T 15.212658
n -t 5.000000 -s 15 -x 86.686144 -y 86.541766 -U 0.133724 -V 0.991019 -T 9.079773
n -t 6.000000 -s 15 -x 86.819868 -y 87.532785 -U 0.162463 -V 0.986715 -T 7.386284
n -t 7.000000 -s 15 -x 86.982331 -y 88.519500 -U 0.202959 -V 0.979187 -T 5.701042
n -t 8.000000 -s 15 -x 87.185290 -y 89.498687 -U 0.266430 -V 0.963854 -T 4.029809
n -t 9.000000 -s 15 -x 87.451721 -y 90.462541 -U 0.388035 -V 0.921645 -T 2.388385
n -t 10.000000 -s 15 -x 87.839756 -y 91.384186 -U 0.761366 -V 0.648322 -T 0.864610
n -t 11.000000 -s 15 -x 88.498041 -y 91.944731 -U 0.164000 -V -0.986460 -T 0.728921
n -t 12.000000 -s 15 -x 88.617584 -y 91.225680 -U 0.164000 -V -0.986460 -T 0.728921
n -t 13.000000 -s 15 -x 88.737127 -y 90.506628 -U 0.164000 -V -0.986460 -T 0.728921
n -t 14.000000 -s 9 -x 86.774773 -y 75.288006 -U 0.164735 -V 0.986338 -T 13.363491
n -t 14.000000 -s 15 -x 88.856670 -y 89.787576 -U 0.164000 -V -0.986460 -T 0.728921
n -t 15.000000 -s 15 -x 88.976213 -y 89.068524 -U 0.000000 -V 0.000000 -T 0.000000
n -t 15.000000 -s 9 -x 86.939509 -y 76.274344 -U 0.000000 -V 0.000000 -T 0.000000
n -t 15.000000 -s 15 -x 88.976213 -y 89.068524 -U 0.164000 -V -0.986460 -T 0.728921
n -t 15.000000 -s 9 -x 86.939509 -y 76.274344 -U 0.721887 -V -0.692011 -T 2.986959
n -t 15.000000 -s 14 -x 58.292310 -y 64.616600 -U 0.866671 -V 0.498881 -T 19.224502
n -t 15.000000 -s 11 -x 63.315150 -y 58.586060 -U 0.920058 -V 0.391782 -T 39.872327
n -t 15.000000 -s 9 -x 86.939509 -y 76.274344 -U 0.395725 -V 0.918369 -T 5.448855
n -t 15.000000 -s 15 -x 88.976213 -y 89.068524 -U 0.164000 -V -0.986460 -T 0.728921
n -t 16.000000 -s 9 -x 87.335233 -y 77.192713 -U 0.418024 -V 0.908436 -T 4.497501
n -t 16.000000 -s 15 -x 89.095756 -y 88.349472 -U 0.164000 -V -0.986460 -T 0.728921
n -t 17.000000 -s 9 -x 87.753258 -y 78.101149 -U 0.445625 -V 0.895220 -T 3.549135
n -t 17.000000 -s 15 -x 89.215299 -y 87.630420 -U 0.164000 -V -0.986460 -T 0.728921
n -t 18.000000 -s 9 -x 88.198883 -y 78.996369 -U 0.482031 -V 0.876154 -T 2.604606
n -t 18.000000 -s 15 -x 89.334842 -y 86.911368 -U 0.164000 -V -0.986460 -T 0.728921
n -t 19.000000 -s 9 -x 88.680914 -y 79.872523 -U 0.536175 -V 0.844107 -T 1.665526
n -t 19.000000 -s 15 -x 89.454385 -y 86.192317 -U 0.164000 -V -0.986460 -T 0.728921
n -t 20.000000 -s 9 -x 89.217090 -y 80.716629 -U 0.646760 -V 0.762694 -T 0.736567
n -t 20.000000 -s 15 -x 89.573928 -y 85.473265 -U 0.164000 -V -0.986460 -T 0.728921
n -t 21.000000 -s 9 -x 89.693471 -y 81.278404 -U 1.000000 -V 0.000000 -T 0.119543
n -t 21.000000 -s 15 -x 89.693471 -y 84.754213 -U 0.164000 -V -0.986460 -T 0.728921
n -t 22.000000 -s 9 -x 89.813014 -y 81.278404 -U 1.000000 -V 0.000000 -T 0.119543
n -t 22.000000 -s 15 -x 89.813014 -y 84.035161 -U 0.164000 -V -0.986460 -T 0.728921
n -t 23.000000 -s 9 -x 89.932557 -y 81.278404 -U 1.000000 -V 0.000000 -T 0.119543
n -t 23.000000 -s 15 -x 89.932557 -y 83.316109 -U 0.164000 -V -0.986460 -T 0.728921
n -t 24.000000 -s 9 -x 90.052100 -y 81.278404 -U 1.000000 -V 0.000000 -T 0.119543
n -t 24.000000 -s 9 -x 90.052100 -y 81.278404 -U 0.195523 -V 0.980699 -T 0.611402
n -t 25.000000 -s 15 -x 90.052100 -y 82.597057 -U 0.000000 -V 0.000000 -T 0.000000
n -t 25.000000 -s 9 -x 90.171643 -y 81.878005 -U 0.000000 -V 0.000000 -T 0.000000
n -t 25.000000 -s 14 -x 66.959016 -y 69.605409 -U 0.000000 -V 0.000000 -T 0.000000
n -t 25.000000 -s 11 -x 72.515729 -y 62.503884 -U 0.000000 -V 0.000000 -T 0.000000
n -t 25.000000 -s 9 -x 90.171643 -y 81.878005 -U 0.164000 -V -0.986460 -T 0.728921
n -t 25.000000 -s 11 -x 72.515729 -y 62.503884 -U 0.627110 -V 0.778931 -T 5.793755
n -t 25.000000 -s 15 -x 90.052100 -y 82.597057 -U 0.015344 -V -0.999882 -T 15.582074
n -t 25.000000 -s 14 -x 66.959016 -y 69.605409 -U 0.622512 -V 0.782610 -T 14.762830
n -t 25.000000 -s 6 -x 63.056800 -y 53.492330 -U 0.939052 -V 0.343776 -T 39.340968
n -t 25.000000 -s 9 -x 90.171643 -y 81.878005 -U 0.164000 -V -0.986460 -T 0.728921
n -t 26.000000 -s 9 -x 90.291186 -y 81.158954 -U 0.164000 -V -0.986460 -T 0.728921
n -t 27.000000 -s 9 -x 90.410729 -y 80.439902 -U 0.164000 -V -0.986460 -T 0.728921
n -t 28.000000 -s 9 -x 90.530272 -y 79.720850 -U 0.164000 -V -0.986460 -T 0.728921
n -t 29.000000 -s 15 -x 90.113475 -y 78.597528 -U 0.901546 -V -0.432684 -T 0.727510
n -t 30.000000 -s 15 -x 90.769359 -y 78.282746 -U 0.164000 -V -0.986460 -T 0.728921
n -t 31.000000 -s 15 -x 90.888902 -y 77.563694 -U 0.164000 -V -0.986460 -T 0.728921
n -t 32.000000 -s 15 -x 91.008445 -y 76.844642 -U 0.164000 -V -0.986460 -T 0.728921
n -t 33.000000 -s 15 -x 91.127988 -y 76.125591 -U 0.164000 -V -0.986460 -T 0.728921
n -t 34.000000 -s 15 -x 91.247531 -y 75.406539 -U 0.164000 -V -0.986460 -T 0.728921
n -t 35.000000 -s 9 -x 90.649815 -y 79.001798 -U 0.000000 -V 0.000000 -T 0.000000
n -t 35.000000 -s 11 -x 76.149051 -y 67.016818 -U 0.000000 -V 0.000000 -T 0.000000
n -t 35.000000 -s 15 -x 91.367074 -y 74.687487 -U 0.000000 -V 0.000000 -T 0.000000
n -t 35.000000 -s 14 -x 73.184133 -y 77.431513 -U 0.000000 -V 0.000000 -T 0.000000
n -t 35.000000 -s 6 -x 72.447316 -y 56.930092 -U 0.000000 -V 0.000000 -T 0.000000
n -t 35.000000 -s 15 -x 91.367074 -y 74.687487 -U 0.164000 -V -0.986460 -T 0.728921
n -t 35.000000 -s 6 -x 72.447316 -y 56.930092 -U 0.860740 -V 0.509046 -T 5.689485
n -t 35.000000 -s 14 -x 73.184133 -y 77.431513 -U 0.768574 -V -0.639761 -T 5.413077
n -t 35.000000 -s 11 -x 76.149051 -y 67.016818 -U 0.905435 -V -0.424484 -T 16.939436
n -t 35.000000 -s 9 -x 90.649815 -y 79.001798 -U 0.880524 -V -0.474001 -T 10.618884
n -t 35.000000 -s 3 -x 83.707680 -y 35.834390 -U 0.561787 -V 0.827282 -T 29.000886
n -t 35.000000 -s 15 -x 91.367074 -y 74.687487 -U 0.164000 -V -0.986460 -T 0.728921
n -t 36.000000 -s 15 -x 91.486617 -y 73.968435 -U 0.164000 -V -0.986460 -T 0.728921
n -t 37.000000 -s 15 -x 91.606160 -y 73.249383 -U 0.164000 -V -0.986460 -T 0.728921
n -t 38.000000 -s 15 -x 91.725703 -y 72.530331 -U 0.164000 -V -0.986460 -T 0.728921
n -t 39.000000 -s 15 -x 91.845246 -y 71.811279 -U 0.164000 -V -0.986460 -T 0.728921
n -t 40.000000 -s 15 -x 91.964789 -y 71.092228 -U 0.164000 -V -0.986460 -T 0.728921
n -t 41.000000 -s 15 -x 92.084332 -y 70.373176 -U 0.164000 -V -0.986460 -T 0.728921
n -t 42.000000 -s 15 -x 92.203875 -y 69.654124 -U 0.164000 -V -0.986460 -T 0.728921
n -t 43.000000 -s 15 -x 92.323418 -y 68.935072 -U 0.164000 -V -0.986460 -T 0.728921
n -t 44.000000 -s 15 -x 92.442961 -y 68.216020 -U 0.164000 -V -0.986460 -T 0.728921
n -t 45.000000 -s 15 -x 92.562504 -y 67.496968 -U 0.000000 -V 0.000000 -T 0.000000
n -t 45.000000 -s 6 -x 77.344481 -y 59.826299 -U 0.000000 -V 0.000000 -T 0.000000
n -t 45.000000 -s 14 -x 77.344481 -y 73.968435 -U 0.000000 -V 0.000000 -T 0.000000
n -t 45.000000 -s 11 -x 85.203405 -y 62.771979 -U 0.000000 -V 0.000000 -T 0.000000
n -t 45.000000 -s 9 -x 99.455058 -y 74.261787 -U 0.000000 -V 0.000000 -T 0.000000
n -t 45.000000 -s 3 -x 89.325550 -y 44.107209 -U 0.000000 -V 0.000000 -T 0.000000
n -t 45.000000 -s 15 -x 92.562504 -y 67.496968 -U 0.164000 -V -0.986460 -T 0.728921
n -t 45.000000 -s 3 -x 89.325550 -y 44.107209 -U 0.366218 -V 0.930529 -T 9.165294
n -t 45.000000 -s 6 -x 77.344481 -y 59.826299 -U 0.164000 -V -0.986460 -T 7.289212
n -t 45.000000 -s 14 -x 77.344481 -y 73.968435 -U 0.164000 -V -0.986460 -T 7.289212
n -t 45.000000 -s 9 -x 99.455058 -y 74.261787 -U 0.072623 -V -0.997359 -T 7.503684
n -t 45.000000 -s 11 -x 85.203405 -y 62.771979 -U 0.824990 -V -0.565148 -T 17.935488
n -t 45.000000 -s 15 -x 92.562504 -y 67.496968 -U 0.164000 -V -0.986460 -T 0.728921
n -t 46.000000 -s 15 -x 92.682047 -y 66.777916 -U 0.164000 -V -0.986460 -T 0.728921
n -t 47.000000 -s 3 -x 90.057986 -y 45.968267 -U 0.204019 -V 0.978967 -T 14.033753
n -t 47.000000 -s 15 -x 92.801590 -y 66.058865 -U 0.164000 -V -0.986460 -T 0.728921
n -t 48.000000 -s 3 -x 90.262005 -y 46.947234 -U 0.212784 -V 0.977099 -T 13.058667
n -t 48.000000 -s 15 -x 92.921133 -y 65.339813 -U 0.164000 -V -0.986460 -T 0.728921
n -t 49.000000 -s 3 -x 90.474789 -y 47.924334 -U 0.222218 -V 0.974997 -T 12.084668
n -t 49.000000 -s 15 -x 93.040677 -y 64.620761 -U 0.164000 -V -0.986460 -T 0.728921
n -t 50.000000 -s 3 -x 90.697007 -y 48.899331 -U 0.232433 -V 0.972612 -T 11.111844
n -t 50.000000 -s 15 -x 93.160220 -y 63.901709 -U 0.164000 -V -0.986460 -T 0.728921
n -t 51.000000 -s 3 -x 90.929439 -y 49.871943 -U 0.243569 -V 0.969883 -T 10.140296
n -t 51.000000 -s 15 -x 93.279763 -y 63.182657 -U 0.164000 -V -0.986460 -T 0.728921
n -t 52.000000 -s 3 -x 91.173009 -y 50.841827 -U 0.255813 -V 0.966726 -T 9.170146
n -t 52.000000 -s 15 -x 93.399306 -y 62.463605 -U 0.164000 -V -0.986460 -T 0.728921
n -t 53.000000 -s 3 -x 91.428821 -y 51.808553 -U 0.269409 -V 0.963026 -T 8.201541
n -t 53.000000 -s 15 -x 93.518849 -y 61.744553 -U 0.164000 -V -0.986460 -T 0.728921
n -t 54.000000 -s 3 -x 91.698231 -y 52.771579 -U 0.284699 -V 0.958617 -T 7.234663
n -t 54.000000 -s 15 -x 93.638392 -y 61.025502 -U 0.164000 -V -0.986460 -T 0.728921
n -t 55.000000 -s 15 -x 93.757935 -y 60.306450 -U 0.000000 -V 0.000000 -T 0.000000
n -t 55.000000 -s 3 -x 91.982930 -y 53.730196 -U 0.000000 -V 0.000000 -T 0.000000
n -t 55.000000 -s 6 -x 78.539912 -y 52.635781 -U 0.000000 -V 0.000000 -T 0.000000
n -t 55.000000 -s 14 -x 78.539912 -y 66.777916 -U 0.000000 -V 0.000000 -T 0.000000
n -t 55.000000 -s 9 -x 100.000000 -y 66.777916 -U 0.000000 -V 0.000000 -T 0.000000
n -t 55.000000 -s 11 -x 93.453303 -y 57.120503 -U 0.000000 -V 0.000000 -T 0.000000
n -t 55.000000 -s 15 -x 93.757935 -y 60.306450 -U 0.164000 -V -0.986460 -T 0.728921
n -t 55.000000 -s 3 -x 91.982930 -y 53.730196 -U 0.222920 -V -0.974837 -T 8.498790
n -t 55.000000 -s 6 -x 78.539912 -y 52.635781 -U 0.164000 -V -0.986460 -T 7.289212
n -t 55.000000 -s 11 -x 93.453303 -y 57.120503 -U 0.935770 -V 0.352612 -T 6.996056
n -t 55.000000 -s 14 -x 78.539912 -y 66.777916 -U 0.164000 -V -0.986460 -T 7.289212
n -t 55.000000 -s 9 -x 100.000000 -y 66.777916 -U 0.000000 -V 1.000000 -T 6.951617
n -t 55.000000 -s 15 -x 93.757935 -y 60.306450 -U 0.164000 -V -0.986460 -T 0.728921
n -t 56.000000 -s 15 -x 93.877478 -y 59.587398 -U 0.164000 -V -0.986460 -T 0.728921
n -t 57.000000 -s 3 -x 92.428769 -y 51.780522 -U 0.916676 -V 0.399632 -T 1.841213
n -t 57.000000 -s 15 -x 93.997021 -y 58.868346 -U 0.164000 -V -0.986460 -T 0.728921
n -t 58.000000 -s 3 -x 93.345445 -y 52.180154 -U 0.935575 -V 0.353128 -T 0.951994
n -t 58.000000 -s 15 -x 94.116564 -y 58.149294 -U 0.164000 -V -0.986460 -T 0.728921
n -t 59.000000 -s 3 -x 94.236107 -y 52.516330 -U 1.000000 -V 0.000000 -T 0.119543
n -t 59.000000 -s 15 -x 94.236107 -y 57.430242 -U 0.164000 -V -0.986460 -T 0.728921
n -t 60.000000 -s 3 -x 94.355650 -y 52.516330 -U 1.000000 -V 0.000000 -T 0.119543
n -t 60.000000 -s 15 -x 94.355650 -y 56.711190 -U 0.164000 -V -0.986460 -T 0.728921
n -t 61.000000 -s 3 -x 94.475193 -y 52.516330 -U 1.000000 -V 0.000000 -T 0.119543
n -t 61.000000 -s 15 -x 94.475193 -y 55.992139 -U 0.164000 -V -0.986460 -T 0.728921
n -t 62.000000 -s 3 -x 94.594736 -y 52.516330 -U 1.000000 -V 0.000000 -T 0.119543
n -t 62.000000 -s 15 -x 94.594736 -y 55.273087 -U 0.164000 -V -0.986460 -T 0.728921
n -t 63.000000 -s 3 -x 94.714279 -y 52.516330 -U 1.000000 -V 0.000000 -T 0.119543
n -t 63.000000 -s 15 -x 94.714279 -y 54.554035 -U 0.164000 -V -0.986460 -T 0.728921
n -t 64.000000 -s 3 -x 94.833822 -y 52.516330 -U 1.000000 -V 0.000000 -T 0.119543
n -t 64.000000 -s 3 -x 94.833822 -y 52.516330 -U 0.195523 -V 0.980699 -T 0.611402
n -t 65.000000 -s 15 -x 94.833822 -y 53.834983 -U 0.000000 -V 0.000000 -T 0.000000
n -t 65.000000 -s 3 -x 94.953365 -y 53.115931 -U 0.000000 -V 0.000000 -T 0.000000
n -t 65.000000 -s 6 -x 79.735342 -y 45.445262 -U 0.000000 -V 0.000000 -T 0.000000
n -t 65.000000 -s 11 -x 100.000000 -y 59.587398 -U 0.000000 -V 0.000000 -T 0.000000
n -t 65.000000 -s 14 -x 79.735342 -y 59.587398 -U 0.000000 -V 0.000000 -T 0.000000
n -t 65.000000 -s 9 -x 100.000000 -y 73.729533 -U 0.000000 -V 0.000000 -T 0.000000
n -t 65.000000 -s 3 -x 94.953365 -y 53.115931 -U 0.164000 -V -0.986460 -T 0.728921
n -t 65.000000 -s 15 -x 94.833822 -y 53.834983 -U 0.963371 -V -0.268173 -T 5.362605
n -t 65.000000 -s 6 -x 79.735342 -y 45.445262 -U 0.164000 -V -0.986460 -T 7.289212
n -t 65.000000 -s 14 -x 79.735342 -y 59.587398 -U 0.164000 -V -0.986460 -T 7.289212
n -t 65.000000 -s 11 -x 100.000000 -y 59.587398 -U 0.000000 -V 1.000000 -T 6.951617
n -t 65.000000 -s 9 -x 100.000000 -y 73.729533 -U -0.565251 -V -0.824919 -T 8.716639
n -t 65.000000 -s 3 -x 94.953365 -y 53.115931 -U 0.164000 -V -0.986460 -T 0.728921
n -t 66.000000 -s 3 -x 95.072908 -y 52.396879 -U 0.164000 -V -0.986460 -T 0.170680
n -t 67.000000 -s 3 -x 95.100900 -y 52.228510 -U 0.000000 -V 0.000000 -T 0.000000
n -t 68.000000 -s 3 -x 95.100900 -y 52.228510 -U 0.000000 -V 0.000000 -T 0.000000
n -t 69.000000 -s 3 -x 95.100900 -y 52.228510 -U 0.000000 -V 0.000000 -T 0.000000
n -t 70.000000 -s 3 -x 95.100900 -y 52.228510 -U 0.000000 -V 0.000000 -T 0.000000
n -t 71.000000 -s 3 -x 95.100900 -y 52.228510 -U 0.000000 -V 0.000000 -T 0.000000
n -t 72.000000 -s 3 -x 95.100900 -y 52.228510 -U 0.000000 -V 0.000000 -T 0.000000
n -t 73.000000 -s 3 -x 95.100900 -y 52.228510 -U 0.000000 -V 0.000000 -T 0.000000
n -t 74.000000 -s 3 -x 95.100900 -y 52.228510 -U 0.000000 -V 0.000000 -T 0.000000
n -t 75.000000 -s 3 -x 95.100900 -y 52.228510 -U 0.000000 -V 0.000000 -T 0.000000
n -t 76.000000 -s 3 -x 95.100900 -y 52.228510 -U 0.000000 -V 0.000000 -T 0.000000
n -t 77.000000 -s 3 -x 95.100900 -y 52.228510 -U 0.000000 -V 0.000000 -T 0.000000
n -t 78.000000 -s 3 -x 95.100900 -y 52.228510 -U 0.000000 -V 0.000000 -T 0.000000
n -t 79.000000 -s 3 -x 95.100900 -y 52.228510 -U 0.000000 -V 0.000000 -T 0.000000
n -t 80.000000 -s 3 -x 95.100900 -y 52.228510 -U 0.000000 -V 0.000000 -T 0.000000
n -t 81.000000 -s 3 -x 95.100900 -y 52.228510 -U 0.000000 -V 0.000000 -T 0.000000
n -t 82.000000 -s 3 -x 95.100900 -y 52.228510 -U 0.000000 -V 0.000000 -T 0.000000
n -t 83.000000 -s 3 -x 95.100900 -y 52.228510 -U 0.000000 -V 0.000000 -T 0.000000
n -t 84.000000 -s 3 -x 95.100900 -y 52.228510 -U 0.000000 -V 0.000000 -T 0.000000
n -t 85.000000 -s 3 -x 95.100900 -y 52.228510 -U 0.000000 -V 0.000000 -T 0.000000
n -t 86.000000 -s 3 -x 95.100900 -y 52.228510 -U 0.000000 -V 0.000000 -T 0.000000
n -t 87.000000 -s 3 -x 95.100900 -y 52.228510 -U 0.000000 -V 0.000000 -T 0.000000
n -t 88.000000 -s 20 -x 95.100900 -y 52.228510 -U -0.827247 -V -0.113424 -T 95.382709
n -t 88.000000 -s 3 -x 95.100900 -y 52.228510 -U 0.000000 -V 0.000000 -T 0.000000
n -t 89.000000 -s 3 -x 95.100900 -y 52.228510 -U -0.990731 -V -0.135839 -T 0.834987
n -t 90.000000 -s 3 -x 94.273653 -y 52.115086 -U -0.990731 -V -0.135839 -T 0.834987
n -t 91.000000 -s 3 -x 93.446406 -y 52.001662 -U -0.990731 -V -0.135839 -T 0.834987
n -t 92.000000 -s 3 -x 92.619159 -y 51.888238 -U -0.990731 -V -0.135839 -T 0.834987
n -t 93.000000 -s 3 -x 91.791912 -y 51.774814 -U -0.990731 -V -0.135839 -T 0.834987
n -t 94.000000 -s 3 -x 90.964664 -y 51.661390 -U -0.990731 -V -0.135839 -T 0.834987
n -t 95.000000 -s 3 -x 90.137417 -y 51.547966 -U -0.990731 -V -0.135839 -T 0.834987
n -t 96.000000 -s 3 -x 89.310170 -y 51.434542 -U -0.990731 -V -0.135839 -T 0.834987
n -t 97.000000 -s 3 -x 88.482923 -y 51.321118 -U 0.000000 -V 0.000000 -T 0.000000
n -t 97.000000 -s 15 -x 100.000000 -y 52.396879 -U 0.000000 -V 0.000000 -T 0.000000
n -t 97.000000 -s 6 -x 80.930773 -y 38.254744 -U 0.000000 -V 0.000000 -T 0.000000
n -t 97.000000 -s 14 -x 80.930773 -y 52.396879 -U 0.000000 -V 0.000000 -T 0.000000
n -t 97.000000 -s 11 -x 100.000000 -y 66.539015 -U 0.000000 -V 0.000000 -T 0.000000
n -t 97.000000 -s 9 -x 95.072908 -y 66.539015 -U 0.000000 -V 0.000000 -T 0.000000
n -t 97.000000 -s 3 -x 88.482923 -y 51.321118 -U -0.990731 -V -0.135839 -T 0.834987
n -t 97.000000 -s 11 -x 100.000000 -y 66.539015 -U 0.000000 -V -1.000000 -T 1.189185
n -t 97.000000 -s 15 -x 100.000000 -y 52.396879 -U 0.000000 -V -1.000000 -T 1.189185
n -t 97.000000 -s 14 -x 80.930773 -y 52.396879 -U -0.987390 -V -0.158306 -T 7.511957
n -t 97.000000 -s 6 -x 80.930773 -y 38.254744 -U -0.987390 -V -0.158306 -T 7.511957
n -t 97.000000 -s 9 -x 95.072908 -y 66.539015 -U -0.987390 -V -0.158306 -T 7.511957
n -t 97.000000 -s 3 -x 88.482923 -y 51.321118 -U -0.990731 -V -0.135839 -T 0.834987
n -t 98.000000 -s 14 -x 79.943383 -y 52.238574 -U 0.488844 -V -0.872371 -T 1.311717
n -t 98.000000 -s 3 -x 87.655676 -y 51.207694 -U -0.990731 -V -0.135839 -T 0.834987
n -t 99.000000 -s 14 -x 80.432227 -y 51.366203 -U 0.367723 -V -0.929935 -T 0.414391
n -t 99.000000 -s 3 -x 86.828429 -y 51.094270 -U -0.990731 -V -0.135839 -T 0.834987
