n -t * -s 0  -x 27.356760000000001 -y 98.779830000000004 -Z 0 -z 1  -v circle -c black
n -t * -s 1  -x 2.5858289999999999 -y 58.567909999999998 -Z 0 -z 1  -v circle -c black
n -t * -s 2  -x 3.6298219999999999 -y 92.273539999999997 -Z 0 -z 1  -v circle -c black
n -t * -s 3  -x 5.0529760000000001 -y 7.5809249999999997 -Z 0 -z 1  -v circle -c black
n -t * -s 4  -x 65.255260000000007 -y 21.008839999999999 -Z 0 -z 1  -v circle -c black
n -t * -s 5  -x 80.240600000000001 -y 53.098640000000003 -Z 0 -z 1  -v circle -c black
n -t * -s 6  -x 9.0390440000000005 -y 19.606560000000002 -Z 0 -z 1  -v circle -c black
n -t * -s 7  -x 53.78199 -y 81.429450000000003 -Z 0 -z 1  -v circle -c black
n -t * -s 8  -x 53.037430000000001 -y 52.391680000000001 -Z 0 -z 1  -v circle -c black
n -t * -s 9  -x 16.030290000000001 -y 3.961649 -Z 0 -z 1  -v circle -c black
n -t * -s 10  -x 15.986520000000001 -y 66.698869999999999 -Z 0 -z 2  -v circle -c black
V -t * -v 1.0a5 -a 0
W -t * -x 100 -y 100
A -t * -n 1 -p 0 -o 0x7fffffff -c 30 -a 1
A -t * -h 1 -m 1073741823 -s 0
n -t 0 -s 10 -S COLOR -c red -o black -i red -I black
n -t 0.000000 -s 10 -x 15.986520 -y 66.698870 -U 2.163571 -V -1.320974 -T 30.914391
n -t 0.000000 -s 1 -x 2.585829 -y 58.567910 -U 0.854934 -V 0.518737 -T 15.674534
n -t 0.000000 -s 8 -x 53.037430 -y 52.391680 -U -0.916645 -V -0.399702 -T 17.277904
n -t 0.000000 -s 7 -x 53.781990 -y 81.429450 -U -0.747616 -V -0.664132 -T 22.180206
n -t 0.000000 -s 6 -x 9.039044 -y 19.606560 -U 0.259278 -V 0.965803 -T 26.795440
n -t 0.000000 -s 0 -x 27.356760 -y 98.779830 -U 0.671297 -V -0.741189 -T 14.662608
n -t 0.000000 -s 3 -x 5.052976 -y 7.580925 -U -0.132138 -V 0.991231 -T 38.240058
n -t 0.000000 -s 2 -x 3.629822 -y 92.273540 -U 0.942984 -V -0.332839 -T 13.103831
n -t 0.000000 -s 9 -x 16.030290 -y 3.961649 -U -0.247561 -V 0.968872 -T 64.752831
n -t 0.000000 -s 1 -x 2.585829 -y 58.567910 -U 0.854934 -V 0.518737 -T 8.174534
n -t 1.000000 -s 1 -x 3.440763 -y 59.086647 -U 0.000000 -V 0.000000 -T 0.000000
n -t 1.000000 -s 8 -x 52.120785 -y 51.991978 -U 0.000000 -V 0.000000 -T 0.000000
n -t 1.000000 -s 7 -x 53.034374 -y 80.765318 -U 0.000000 -V 0.000000 -T 0.000000
n -t 1.000000 -s 6 -x 9.298322 -y 20.572363 -U 0.000000 -V 0.000000 -T 0.000000
n -t 1.000000 -s 0 -x 28.028057 -y 98.038641 -U 0.000000 -V 0.000000 -T 0.000000
n -t 1.000000 -s 3 -x 4.920838 -y 8.572156 -U 0.000000 -V 0.000000 -T 0.000000
n -t 1.000000 -s 2 -x 4.572806 -y 91.940701 -U 0.000000 -V 0.000000 -T 0.000000
n -t 1.000000 -s 9 -x 15.782729 -y 4.930521 -U 0.000000 -V 0.000000 -T 0.000000
n -t 1.000000 -s 1 -x 3.440763 -y 59.086647 -U 0.919433 -V 0.393246 -T 15.998254
n -t 1.000000 -s 8 -x 52.120785 -y 51.991978 -U -0.852358 -V -0.522959 -T 14.967296
n -t 1.000000 -s 7 -x 53.034374 -y 80.765318 -U -0.664184 -V -0.747569 -T 20.583275
n -t 1.000000 -s 6 -x 9.298322 -y 20.572363 -U 0.351285 -V 0.936269 -T 25.198251
n -t 1.000000 -s 0 -x 28.028057 -y 98.038641 -U 0.703613 -V -0.710584 -T 16.110054
n -t 1.000000 -s 3 -x 4.920838 -y 8.572156 -U -0.136952 -V 0.990578 -T 35.931091
n -t 1.000000 -s 2 -x 4.572806 -y 91.940701 -U 0.930386 -V -0.366582 -T 14.593180
n -t 1.000000 -s 9 -x 15.782729 -y 4.930521 -U -0.252629 -V 0.967563 -T 62.473832
n -t 1.000000 -s 5 -x 80.240600 -y 53.098640 -U -0.922836 -V 0.385192 -T 86.949978
n -t 1.000000 -s 1 -x 3.440763 -y 59.086647 -U 0.919433 -V 0.393246 -T 8.498254
n -t 2.000000 -s 1 -x 4.360196 -y 59.479893 -U 0.000000 -V 0.000000 -T 0.000000
n -t 2.000000 -s 8 -x 51.268427 -y 51.469019 -U 0.000000 -V 0.000000 -T 0.000000
n -t 2.000000 -s 7 -x 52.370191 -y 80.017749 -U 0.000000 -V 0.000000 -T 0.000000
n -t 2.000000 -s 6 -x 9.649607 -y 21.508631 -U 0.000000 -V 0.000000 -T 0.000000
n -t 2.000000 -s 0 -x 28.731670 -y 97.328058 -U 0.000000 -V 0.000000 -T 0.000000
n -t 2.000000 -s 3 -x 4.783886 -y 9.562734 -U 0.000000 -V 0.000000 -T 0.000000
n -t 2.000000 -s 2 -x 5.503191 -y 91.574119 -U 0.000000 -V 0.000000 -T 0.000000
n -t 2.000000 -s 9 -x 15.530099 -y 5.898084 -U 0.000000 -V 0.000000 -T 0.000000
n -t 2.000000 -s 5 -x 79.317764 -y 53.483832 -U 0.000000 -V 0.000000 -T 0.000000
n -t 2.000000 -s 1 -x 4.360196 -y 59.479893 -U 0.961223 -V 0.275774 -T 16.597056
n -t 2.000000 -s 8 -x 51.268427 -y 51.469019 -U -0.748700 -V -0.662909 -T 13.011296
n -t 2.000000 -s 7 -x 52.370191 -y 80.017749 -U -0.561954 -V -0.827168 -T 19.295743
n -t 2.000000 -s 6 -x 9.649607 -y 21.508631 -U 0.447097 -V 0.894486 -T 23.851792
n -t 2.000000 -s 0 -x 28.731670 -y 97.328058 -U 0.727763 -V -0.685829 -T 17.581546
n -t 2.000000 -s 3 -x 4.783886 -y 9.562734 -U -0.142280 -V 0.989826 -T 33.623050
n -t 2.000000 -s 2 -x 5.503191 -y 91.574119 -U 0.920117 -V -0.391643 -T 16.096285
n -t 2.000000 -s 9 -x 15.530099 -y 5.898084 -U -0.257990 -V 0.966148 -T 60.196631
n -t 2.000000 -s 5 -x 79.317764 -y 53.483832 -U -0.928238 -V 0.371988 -T 85.449845
n -t 2.000000 -s 8 -x 51.268427 -y 51.469019 -U -0.995293 -V 0.096912 -T 20.444396
n -t 2.000000 -s 1 -x 4.360196 -y 59.479893 -U 0.961223 -V 0.275774 -T 9.097056
n -t 3.000000 -s 1 -x 5.321419 -y 59.755666 -U 0.000000 -V 0.000000 -T 0.000000
n -t 3.000000 -s 8 -x 50.273134 -y 51.565930 -U 0.000000 -V 0.000000 -T 0.000000
n -t 3.000000 -s 7 -x 51.808236 -y 79.190581 -U 0.000000 -V 0.000000 -T 0.000000
n -t 3.000000 -s 6 -x 10.096704 -y 22.403117 -U 0.000000 -V 0.000000 -T 0.000000
n -t 3.000000 -s 0 -x 29.459432 -y 96.642229 -U 0.000000 -V 0.000000 -T 0.000000
n -t 3.000000 -s 3 -x 4.641606 -y 10.552560 -U 0.000000 -V 0.000000 -T 0.000000
n -t 3.000000 -s 2 -x 6.423309 -y 91.182476 -U 0.000000 -V 0.000000 -T 0.000000
n -t 3.000000 -s 9 -x 15.272110 -y 6.864232 -U 0.000000 -V 0.000000 -T 0.000000
n -t 3.000000 -s 5 -x 78.389526 -y 53.855820 -U 0.000000 -V 0.000000 -T 0.000000
n -t 3.000000 -s 1 -x 5.321419 -y 59.755666 -U 0.985244 -V 0.171155 -T 17.412755
n -t 3.000000 -s 8 -x 50.273134 -y 51.565930 -U -0.548182 -V -0.836359 -T 12.008226
n -t 3.000000 -s 7 -x 51.808236 -y 79.190581 -U -0.442432 -V -0.896802 -T 18.348123
n -t 3.000000 -s 6 -x 10.096704 -y 22.403117 -U 0.543530 -V 0.839390 -T 22.778008
n -t 3.000000 -s 0 -x 29.459432 -y 96.642229 -U 0.746281 -V -0.665631 -T 19.069234
n -t 3.000000 -s 3 -x 4.641606 -y 10.552560 -U -0.108416 -V 0.994106 -T 31.153817
n -t 3.000000 -s 2 -x 6.423309 -y 91.182476 -U 0.911729 -V -0.410792 -T 17.608222
n -t 3.000000 -s 9 -x 15.272110 -y 6.864232 -U -0.243192 -V 0.969978 -T 57.600998
n -t 3.000000 -s 5 -x 78.389526 -y 53.855820 -U -0.931596 -V 0.363496 -T 82.788591
n -t 3.000000 -s 8 -x 50.273134 -y 51.565930 -U -0.999463 -V 0.032760 -T 17.198531
n -t 3.000000 -s 1 -x 5.321419 -y 59.755666 -U 0.985244 -V 0.171155 -T 9.912755
n -t 4.000000 -s 1 -x 6.306663 -y 59.926822 -U 0.000000 -V 0.000000 -T 0.000000
n -t 4.000000 -s 8 -x 49.273671 -y 51.598690 -U 0.000000 -V 0.000000 -T 0.000000
n -t 4.000000 -s 7 -x 51.365804 -y 78.293779 -U 0.000000 -V 0.000000 -T 0.000000
n -t 4.000000 -s 6 -x 10.640234 -y 23.242507 -U 0.000000 -V 0.000000 -T 0.000000
n -t 4.000000 -s 0 -x 30.205713 -y 95.976598 -U 0.000000 -V 0.000000 -T 0.000000
n -t 4.000000 -s 3 -x 4.533190 -y 11.546666 -U 0.000000 -V 0.000000 -T 0.000000
n -t 4.000000 -s 2 -x 7.335038 -y 90.771683 -U 0.000000 -V 0.000000 -T 0.000000
n -t 4.000000 -s 9 -x 15.028918 -y 7.834210 -U 0.000000 -V 0.000000 -T 0.000000
n -t 4.000000 -s 5 -x 77.457930 -y 54.219316 -U 0.000000 -V 0.000000 -T 0.000000
n -t 4.000000 -s 1 -x 6.306663 -y 59.926822 -U 0.996722 -V 0.080902 -T 18.394437
n -t 4.000000 -s 8 -x 49.273671 -y 51.598690 -U -0.287393 -V -0.957813 -T 11.898902
n -t 4.000000 -s 7 -x 51.365804 -y 78.293779 -U -0.310420 -V -0.950600 -T 17.755956
n -t 4.000000 -s 6 -x 10.640234 -y 23.242507 -U 0.636631 -V 0.771168 -T 21.991648
n -t 4.000000 -s 0 -x 30.205713 -y 95.976598 -U 0.760802 -V -0.648984 -T 20.568166
n -t 4.000000 -s 3 -x 4.533190 -y 11.546666 -U -0.038554 -V 0.999257 -T 28.676424
n -t 4.000000 -s 2 -x 7.335038 -y 90.771683 -U 0.904826 -V -0.425781 -T 19.126062
n -t 4.000000 -s 9 -x 15.028918 -y 7.834210 -U -0.211617 -V 0.977353 -T 54.822338
n -t 4.000000 -s 5 -x 77.457930 -y 54.219316 -U -0.933617 -V 0.358272 -T 79.294092
n -t 4.000000 -s 1 -x 6.306663 -y 59.926822 -U 0.996722 -V 0.080902 -T 10.894437
n -t 5.000000 -s 1 -x 7.303385 -y 60.007724 -U 0.000000 -V 0.000000 -T 0.000000
n -t 5.000000 -s 8 -x 48.986278 -y 50.640877 -U 0.000000 -V 0.000000 -T 0.000000
n -t 5.000000 -s 7 -x 51.055385 -y 77.343179 -U 0.000000 -V 0.000000 -T 0.000000
n -t 5.000000 -s 6 -x 11.276865 -y 24.013675 -U 0.000000 -V 0.000000 -T 0.000000
n -t 5.000000 -s 0 -x 30.966515 -y 95.327613 -U 0.000000 -V 0.000000 -T 0.000000
n -t 5.000000 -s 3 -x 4.494636 -y 12.545923 -U 0.000000 -V 0.000000 -T 0.000000
n -t 5.000000 -s 2 -x 8.239864 -y 90.345903 -U 0.000000 -V 0.000000 -T 0.000000
n -t 5.000000 -s 9 -x 14.817302 -y 8.811563 -U 0.000000 -V 0.000000 -T 0.000000
n -t 5.000000 -s 5 -x 76.524313 -y 54.577588 -U 0.000000 -V 0.000000 -T 0.000000
n -t 5.000000 -s 1 -x 7.303385 -y 60.007724 -U 0.999990 -V 0.004424 -T 19.501181
n -t 5.000000 -s 8 -x 48.986278 -y 50.640877 -U -0.082094 -V -0.996625 -T 11.799911
n -t 5.000000 -s 7 -x 51.055385 -y 77.343179 -U -0.173444 -V -0.984844 -T 17.514636
n -t 5.000000 -s 6 -x 11.276865 -y 24.013675 -U 0.722300 -V 0.691580 -T 21.497322
n -t 5.000000 -s 0 -x 30.966515 -y 95.327613 -U 0.772411 -V -0.635123 -T 22.075114
n -t 5.000000 -s 3 -x 4.494636 -y 12.545923 -U 0.041602 -V 0.999134 -T 26.357692
n -t 5.000000 -s 2 -x 8.239864 -y 90.345903 -U 0.899096 -V -0.437752 -T 20.647982
n -t 5.000000 -s 9 -x 14.817302 -y 8.811563 -U -0.177065 -V 0.984199 -T 52.105756
n -t 5.000000 -s 5 -x 76.524313 -y 54.577588 -U -0.935766 -V 0.352623 -T 75.802262
n -t 5.000000 -s 1 -x 7.303385 -y 60.007724 -U 0.999990 -V 0.004424 -T 12.001181
n -t 6.000000 -s 1 -x 8.303375 -y 60.012148 -U 0.000000 -V 0.000000 -T 0.000000
n -t 6.000000 -s 8 -x 48.904184 -y 49.644253 -U 0.000000 -V 0.000000 -T 0.000000
n -t 6.000000 -s 7 -x 50.881941 -y 76.358335 -U 0.000000 -V 0.000000 -T 0.000000
n -t 6.000000 -s 6 -x 11.999165 -y 24.705255 -U 0.000000 -V 0.000000 -T 0.000000
n -t 6.000000 -s 0 -x 31.738926 -y 94.692490 -U 0.000000 -V 0.000000 -T 0.000000
n -t 6.000000 -s 3 -x 4.536238 -y 13.545057 -U 0.000000 -V 0.000000 -T 0.000000
n -t 6.000000 -s 2 -x 9.138960 -y 89.908151 -U 0.000000 -V 0.000000 -T 0.000000
n -t 6.000000 -s 9 -x 14.640236 -y 9.795762 -U 0.000000 -V 0.000000 -T 0.000000
n -t 6.000000 -s 5 -x 75.588548 -y 54.930211 -U 0.000000 -V 0.000000 -T 0.000000
n -t 6.000000 -s 1 -x 8.303375 -y 60.012148 -U 0.998207 -V -0.059856 -T 20.701689
n -t 6.000000 -s 8 -x 48.904184 -y 49.644253 -U 0.105085 -V -0.994463 -T 12.151712
n -t 6.000000 -s 7 -x 50.881941 -y 76.358335 -U -0.039819 -V -0.999207 -T 17.599268
n -t 6.000000 -s 6 -x 11.999165 -y 24.705255 -U 0.797105 -V 0.603841 -T 21.288011
n -t 6.000000 -s 0 -x 31.738926 -y 94.692490 -U 0.781851 -V -0.623466 -T 23.587915
n -t 6.000000 -s 3 -x 4.536238 -y 13.545057 -U 0.132834 -V 0.991138 -T 24.229480
n -t 6.000000 -s 2 -x 9.138960 -y 89.908151 -U 0.894293 -V -0.447482 -T 22.172804
n -t 6.000000 -s 9 -x 14.640236 -y 9.795762 -U -0.139216 -V 0.990262 -T 49.458895
n -t 6.000000 -s 5 -x 75.588548 -y 54.930211 -U -0.938053 -V 0.346492 -T 72.313409
n -t 6.000000 -s 1 -x 8.303375 -y 60.012148 -U 0.998207 -V -0.059856 -T 13.201689
n -t 7.000000 -s 1 -x 9.301582 -y 59.952292 -U 0.000000 -V 0.000000 -T 0.000000
n -t 7.000000 -s 8 -x 49.009269 -y 48.649789 -U 0.000000 -V 0.000000 -T 0.000000
n -t 7.000000 -s 7 -x 50.842121 -y 75.359128 -U 0.000000 -V 0.000000 -T 0.000000
n -t 7.000000 -s 6 -x 12.796270 -y 25.309096 -U 0.000000 -V 0.000000 -T 0.000000
n -t 7.000000 -s 0 -x 32.520776 -y 94.069024 -U 0.000000 -V 0.000000 -T 0.000000
n -t 7.000000 -s 3 -x 4.669072 -y 14.536195 -U 0.000000 -V 0.000000 -T 0.000000
n -t 7.000000 -s 2 -x 10.033253 -y 89.460669 -U 0.000000 -V 0.000000 -T 0.000000
n -t 7.000000 -s 9 -x 14.501020 -y 10.786024 -U 0.000000 -V 0.000000 -T 0.000000
n -t 7.000000 -s 5 -x 74.650495 -y 55.276703 -U 0.000000 -V 0.000000 -T 0.000000
n -t 7.000000 -s 8 -x 49.009269 -y 48.649789 -U -0.897153 -V 0.441721 -T 19.927213
n -t 7.000000 -s 4 -x 65.255260 -y 21.008840 -U -0.646631 -V 0.762803 -T 19.965850
n -t 7.000000 -s 7 -x 50.842121 -y 75.359128 -U 0.083617 -V -0.996498 -T 17.970009
n -t 7.000000 -s 6 -x 12.796270 -y 25.309096 -U 0.858965 -V 0.512034 -T 21.345744
n -t 7.000000 -s 0 -x 32.520776 -y 94.069024 -U 0.789639 -V -0.613572 -T 25.105077
n -t 7.000000 -s 3 -x 4.669072 -y 14.536195 -U 0.235092 -V 0.971973 -T 22.328450
n -t 7.000000 -s 2 -x 10.033253 -y 89.460669 -U 0.890232 -V -0.455508 -T 23.699741
n -t 7.000000 -s 1 -x 9.301582 -y 59.952292 -U 0.239490 -V -0.970899 -T 2.575182
n -t 7.000000 -s 9 -x 14.501020 -y 10.786024 -U -0.067359 -V 0.997729 -T 68.033750
n -t 7.000000 -s 8 -x 49.009269 -y 48.649789 -U -0.897153 -V 0.441721 -T 12.427213
n -t 8.000000 -s 8 -x 48.112117 -y 49.091510 -U 0.000000 -V 0.000000 -T 0.000000
n -t 8.000000 -s 4 -x 64.608629 -y 21.771643 -U 0.000000 -V 0.000000 -T 0.000000
n -t 8.000000 -s 7 -x 50.925738 -y 74.362630 -U 0.000000 -V 0.000000 -T 0.000000
n -t 8.000000 -s 6 -x 13.655235 -y 25.821130 -U 0.000000 -V 0.000000 -T 0.000000
n -t 8.000000 -s 0 -x 33.310415 -y 93.455452 -U 0.000000 -V 0.000000 -T 0.000000
n -t 8.000000 -s 3 -x 4.904164 -y 15.508168 -U 0.000000 -V 0.000000 -T 0.000000
n -t 8.000000 -s 2 -x 10.923485 -y 89.005161 -U 0.000000 -V 0.000000 -T 0.000000
n -t 8.000000 -s 1 -x 9.541073 -y 58.981393 -U 0.000000 -V 0.000000 -T 0.000000
n -t 8.000000 -s 9 -x 14.433660 -y 11.783753 -U 0.000000 -V 0.000000 -T 0.000000
n -t 8.000000 -s 8 -x 48.112117 -y 49.091510 -U -0.903243 -V 0.429130 -T 16.404263
n -t 8.000000 -s 4 -x 64.608629 -y 21.771643 -U -0.609250 -V 0.792978 -T 16.578305
n -t 8.000000 -s 7 -x 50.925738 -y 74.362630 -U 0.192816 -V -0.981235 -T 18.580211
n -t 8.000000 -s 6 -x 13.655235 -y 25.821130 -U 0.907393 -V 0.420284 -T 21.644273
n -t 8.000000 -s 0 -x 33.310415 -y 93.455452 -U 0.796148 -V -0.605102 -T 26.625548
n -t 8.000000 -s 3 -x 4.904164 -y 15.508168 -U 0.346844 -V 0.937923 -T 20.694355
n -t 8.000000 -s 2 -x 10.923485 -y 89.005161 -U 0.886768 -V -0.462215 -T 25.228254
n -t 8.000000 -s 1 -x 9.541073 -y 58.981393 -U 0.665416 -V -0.746473 -T 3.818380
n -t 8.000000 -s 9 -x 14.433660 -y 11.783753 -U -0.035849 -V 0.999357 -T 65.602695
n -t 8.000000 -s 8 -x 48.112117 -y 49.091510 -U -0.903243 -V 0.429130 -T 8.904263
n -t 9.000000 -s 8 -x 47.208874 -y 49.520640 -U 0.000000 -V 0.000000 -T 0.000000
n -t 9.000000 -s 4 -x 63.999379 -y 22.564621 -U 0.000000 -V 0.000000 -T 0.000000
n -t 9.000000 -s 7 -x 51.118554 -y 73.381395 -U 0.000000 -V 0.000000 -T 0.000000
n -t 9.000000 -s 6 -x 14.562627 -y 26.241414 -U 0.000000 -V 0.000000 -T 0.000000
n -t 9.000000 -s 0 -x 34.106563 -y 92.850350 -U 0.000000 -V 0.000000 -T 0.000000
n -t 9.000000 -s 3 -x 5.251008 -y 16.446091 -U 0.000000 -V 0.000000 -T 0.000000
n -t 9.000000 -s 2 -x 11.810252 -y 88.542946 -U 0.000000 -V 0.000000 -T 0.000000
n -t 9.000000 -s 1 -x 10.206489 -y 58.234921 -U 0.000000 -V 0.000000 -T 0.000000
n -t 9.000000 -s 9 -x 14.397812 -y 12.783110 -U 0.000000 -V 0.000000 -T 0.000000
n -t 9.000000 -s 8 -x 47.208874 -y 49.520640 -U -0.911867 -V 0.410485 -T 12.885882
n -t 9.000000 -s 4 -x 63.999379 -y 22.564621 -U -0.553270 -V 0.833002 -T 13.244005
n -t 9.000000 -s 5 -x 74.650495 -y 55.276703 -U -0.999663 -V -0.025944 -T 17.984686
n -t 9.000000 -s 6 -x 14.562627 -y 26.241414 -U 0.943267 -V 0.332034 -T 22.152817
n -t 9.000000 -s 7 -x 51.118554 -y 73.381395 -U 0.903020 -V 0.429599 -T 6.149710
n -t 9.000000 -s 3 -x 5.251008 -y 16.446091 -U 0.464440 -V 0.885605 -T 19.366216
n -t 9.000000 -s 0 -x 34.106563 -y 92.850350 -U 0.080094 -V -0.996787 -T 16.881279
n -t 9.000000 -s 1 -x 10.206489 -y 58.234921 -U 0.762713 -V -0.646738 -T 5.295529
n -t 9.000000 -s 2 -x 11.810252 -y 88.542946 -U 0.190932 -V -0.981603 -T 12.754277
n -t 9.000000 -s 8 -x 47.208874 -y 49.520640 -U -0.911867 -V 0.410485 -T 5.385882
n -t 9.000000 -s 4 -x 63.999379 -y 22.564621 -U 0.000000 -V 0.000000 -T 0.000000
n -t 9.000000 -s 5 -x 74.650495 -y 55.276703 -U 0.000000 -V 0.000000 -T 0.000000
n -t 9.000000 -s 6 -x 14.562627 -y 26.241414 -U 0.000000 -V 0.000000 -T 0.000000
n -t 9.000000 -s 7 -x 51.118554 -y 73.381395 -U 0.000000 -V 0.000000 -T 0.000000
n -t 9.000000 -s 3 -x 5.251008 -y 16.446091 -U 0.000000 -V 0.000000 -T 0.000000
n -t 9.000000 -s 0 -x 34.106563 -y 92.850350 -U 0.000000 -V 0.000000 -T 0.000000
n -t 9.000000 -s 1 -x 10.206489 -y 58.234921 -U 0.000000 -V 0.000000 -T 0.000000
n -t 9.000000 -s 2 -x 11.810252 -y 88.542946 -U 0.000000 -V 0.000000 -T 0.000000
n -t 10.000000 -s 8 -x 46.297007 -y 49.931126 -U -0.925202 -V 0.379476 -T 1.876094
n -t 10.000000 -s 4 -x 63.999379 -y 22.564621 -U 0.000000 -V 0.000000 -T 0.000000
n -t 10.000000 -s 5 -x 74.650495 -y 55.276703 -U 0.000000 -V 0.000000 -T 0.000000
n -t 10.000000 -s 6 -x 14.562627 -y 26.241414 -U 0.000000 -V 0.000000 -T 0.000000
n -t 10.000000 -s 7 -x 51.118554 -y 73.381395 -U 0.000000 -V 0.000000 -T 0.000000
n -t 10.000000 -s 3 -x 5.251008 -y 16.446091 -U 0.000000 -V 0.000000 -T 0.000000
n -t 10.000000 -s 0 -x 34.106563 -y 92.850350 -U 0.000000 -V 0.000000 -T 0.000000
n -t 10.000000 -s 1 -x 10.206489 -y 58.234921 -U 0.000000 -V 0.000000 -T 0.000000
n -t 10.000000 -s 2 -x 11.810252 -y 88.542946 -U 0.000000 -V 0.000000 -T 0.000000
n -t 11.000000 -s 4 -x 63.999379 -y 22.564621 -U 0.000000 -V 0.000000 -T 0.000000
n -t 11.000000 -s 5 -x 74.650495 -y 55.276703 -U 0.000000 -V 0.000000 -T 0.000000
n -t 11.000000 -s 6 -x 14.562627 -y 26.241414 -U 0.000000 -V 0.000000 -T 0.000000
n -t 11.000000 -s 7 -x 51.118554 -y 73.381395 -U 0.000000 -V 0.000000 -T 0.000000
n -t 11.000000 -s 3 -x 5.251008 -y 16.446091 -U 0.000000 -V 0.000000 -T 0.000000
n -t 11.000000 -s 0 -x 34.106563 -y 92.850350 -U 0.000000 -V 0.000000 -T 0.000000
n -t 11.000000 -s 1 -x 10.206489 -y 58.234921 -U 0.000000 -V 0.000000 -T 0.000000
n -t 11.000000 -s 2 -x 11.810252 -y 88.542946 -U 0.000000 -V 0.000000 -T 0.000000
n -t 12.000000 -s 4 -x 63.999379 -y 22.564621 -U 0.000000 -V 0.000000 -T 0.000000
n -t 12.000000 -s 5 -x 74.650495 -y 55.276703 -U 0.000000 -V 0.000000 -T 0.000000
n -t 12.000000 -s 6 -x 14.562627 -y 26.241414 -U 0.000000 -V 0.000000 -T 0.000000
n -t 12.000000 -s 7 -x 51.118554 -y 73.381395 -U 0.000000 -V 0.000000 -T 0.000000
n -t 12.000000 -s 3 -x 5.251008 -y 16.446091 -U 0.000000 -V 0.000000 -T 0.000000
n -t 12.000000 -s 0 -x 34.106563 -y 92.850350 -U 0.000000 -V 0.000000 -T 0.000000
n -t 12.000000 -s 1 -x 10.206489 -y 58.234921 -U 0.000000 -V 0.000000 -T 0.000000
n -t 12.000000 -s 2 -x 11.810252 -y 88.542946 -U 0.000000 -V 0.000000 -T 0.000000
n -t 13.000000 -s 4 -x 63.999379 -y 22.564621 -U 0.000000 -V 0.000000 -T 0.000000
n -t 13.000000 -s 5 -x 74.650495 -y 55.276703 -U 0.000000 -V 0.000000 -T 0.000000
n -t 13.000000 -s 6 -x 14.562627 -y 26.241414 -U 0.000000 -V 0.000000 -T 0.000000
n -t 13.000000 -s 7 -x 51.118554 -y 73.381395 -U 0.000000 -V 0.000000 -T 0.000000
n -t 13.000000 -s 3 -x 5.251008 -y 16.446091 -U 0.000000 -V 0.000000 -T 0.000000
n -t 13.000000 -s 0 -x 34.106563 -y 92.850350 -U 0.000000 -V 0.000000 -T 0.000000
n -t 13.000000 -s 1 -x 10.206489 -y 58.234921 -U 0.000000 -V 0.000000 -T 0.000000
n -t 13.000000 -s 2 -x 11.810252 -y 88.542946 -U 0.000000 -V 0.000000 -T 0.000000
n -t 14.000000 -s 8 -x 44.561242 -y 50.643058 -U 0.000000 -V 0.000000 -T 0.000000
n -t 14.000000 -s 4 -x 63.999379 -y 22.564621 -U 0.000000 -V 0.000000 -T 0.000000
n -t 14.000000 -s 5 -x 74.650495 -y 55.276703 -U 0.000000 -V 0.000000 -T 0.000000
n -t 14.000000 -s 6 -x 14.562627 -y 26.241414 -U 0.000000 -V 0.000000 -T 0.000000
n -t 14.000000 -s 7 -x 51.118554 -y 73.381395 -U 0.000000 -V 0.000000 -T 0.000000
n -t 14.000000 -s 3 -x 5.251008 -y 16.446091 -U 0.000000 -V 0.000000 -T 0.000000
n -t 14.000000 -s 0 -x 34.106563 -y 92.850350 -U 0.000000 -V 0.000000 -T 0.000000
n -t 14.000000 -s 1 -x 10.206489 -y 58.234921 -U 0.000000 -V 0.000000 -T 0.000000
n -t 14.000000 -s 2 -x 11.810252 -y 88.542946 -U 0.000000 -V 0.000000 -T 0.000000
n -t 14.000000 -s 8 -x 44.561242 -y 50.643058 -U 0.575441 -V -0.817843 -T 2.980798
n -t 14.000000 -s 4 -x 63.999379 -y 22.564621 -U 0.619100 -V 0.785312 -T 5.637766
n -t 14.000000 -s 5 -x 74.650495 -y 55.276703 -U -0.711530 -V -0.702656 -T 10.063917
n -t 14.000000 -s 6 -x 14.562627 -y 26.241414 -U 0.999720 -V 0.023662 -T 31.722768
n -t 14.000000 -s 7 -x 51.118554 -y 73.381395 -U 0.971929 -V -0.235274 -T 16.843991
n -t 14.000000 -s 9 -x 14.397812 -y 12.783110 -U 0.600317 -V 0.799762 -T 17.766436
n -t 14.000000 -s 0 -x 34.106563 -y 92.850350 -U 0.460916 -V -0.887444 -T 26.403831
n -t 14.000000 -s 1 -x 10.206489 -y 58.234921 -U 0.828814 -V -0.559524 -T 17.925395
n -t 14.000000 -s 2 -x 11.810252 -y 88.542946 -U 0.569588 -V -0.821930 -T 23.267798
n -t 14.000000 -s 4 -x 63.999379 -y 22.564621 -U -0.427835 -V 0.903857 -T 16.633179
n -t 14.000000 -s 4 -x 63.999379 -y 22.564621 -U 0.000000 -V 0.000000 -T 0.000000
n -t 14.000000 -s 5 -x 74.650495 -y 55.276703 -U 0.000000 -V 0.000000 -T 0.000000
n -t 14.000000 -s 6 -x 14.562627 -y 26.241414 -U 0.000000 -V 0.000000 -T 0.000000
n -t 14.000000 -s 7 -x 51.118554 -y 73.381395 -U 0.000000 -V 0.000000 -T 0.000000
n -t 14.000000 -s 9 -x 14.397812 -y 12.783110 -U 0.000000 -V 0.000000 -T 0.000000
n -t 14.000000 -s 0 -x 34.106563 -y 92.850350 -U 0.000000 -V 0.000000 -T 0.000000
n -t 14.000000 -s 1 -x 10.206489 -y 58.234921 -U 0.000000 -V 0.000000 -T 0.000000
n -t 14.000000 -s 2 -x 11.810252 -y 88.542946 -U 0.000000 -V 0.000000 -T 0.000000
n -t 15.000000 -s 4 -x 63.999379 -y 22.564621 -U -0.427835 -V 0.903857 -T 16.633179
n -t 15.000000 -s 4 -x 63.999379 -y 22.564621 -U 0.000000 -V 0.000000 -T 0.000000
n -t 15.000000 -s 5 -x 74.650495 -y 55.276703 -U 0.000000 -V 0.000000 -T 0.000000
n -t 15.000000 -s 6 -x 14.562627 -y 26.241414 -U 0.000000 -V 0.000000 -T 0.000000
n -t 15.000000 -s 7 -x 51.118554 -y 73.381395 -U 0.000000 -V 0.000000 -T 0.000000
n -t 15.000000 -s 9 -x 14.397812 -y 12.783110 -U 0.000000 -V 0.000000 -T 0.000000
n -t 15.000000 -s 0 -x 34.106563 -y 92.850350 -U 0.000000 -V 0.000000 -T 0.000000
n -t 15.000000 -s 1 -x 10.206489 -y 58.234921 -U 0.000000 -V 0.000000 -T 0.000000
n -t 15.000000 -s 2 -x 11.810252 -y 88.542946 -U 0.000000 -V 0.000000 -T 0.000000
n -t 16.000000 -s 4 -x 63.999379 -y 22.564621 -U -0.427835 -V 0.903857 -T 16.633179
n -t 16.000000 -s 4 -x 63.999379 -y 22.564621 -U 0.000000 -V 0.000000 -T 0.000000
n -t 16.000000 -s 5 -x 74.650495 -y 55.276703 -U 0.000000 -V 0.000000 -T 0.000000
n -t 16.000000 -s 6 -x 14.562627 -y 26.241414 -U 0.000000 -V 0.000000 -T 0.000000
n -t 16.000000 -s 7 -x 51.118554 -y 73.381395 -U 0.000000 -V 0.000000 -T 0.000000
n -t 16.000000 -s 9 -x 14.397812 -y 12.783110 -U 0.000000 -V 0.000000 -T 0.000000
n -t 16.000000 -s 0 -x 34.106563 -y 92.850350 -U 0.000000 -V 0.000000 -T 0.000000
n -t 16.000000 -s 1 -x 10.206489 -y 58.234921 -U 0.000000 -V 0.000000 -T 0.000000
n -t 16.000000 -s 2 -x 11.810252 -y 88.542946 -U 0.000000 -V 0.000000 -T 0.000000
n -t 17.000000 -s 4 -x 63.999379 -y 22.564621 -U -0.427835 -V 0.903857 -T 16.633179
n -t 17.000000 -s 8 -x 46.276514 -y 48.205233 -U 0.853494 -V -0.521103 -T 0.104874
n -t 17.000000 -s 4 -x 63.999379 -y 22.564621 -U 0.000000 -V 0.000000 -T 0.000000
n -t 17.000000 -s 5 -x 74.650495 -y 55.276703 -U 0.000000 -V 0.000000 -T 0.000000
n -t 17.000000 -s 6 -x 14.562627 -y 26.241414 -U 0.000000 -V 0.000000 -T 0.000000
n -t 17.000000 -s 7 -x 51.118554 -y 73.381395 -U 0.000000 -V 0.000000 -T 0.000000
n -t 17.000000 -s 9 -x 14.397812 -y 12.783110 -U 0.000000 -V 0.000000 -T 0.000000
n -t 17.000000 -s 0 -x 34.106563 -y 92.850350 -U 0.000000 -V 0.000000 -T 0.000000
n -t 17.000000 -s 1 -x 10.206489 -y 58.234921 -U 0.000000 -V 0.000000 -T 0.000000
n -t 17.000000 -s 2 -x 11.810252 -y 88.542946 -U 0.000000 -V 0.000000 -T 0.000000
n -t 18.000000 -s 4 -x 63.999379 -y 22.564621 -U -0.427835 -V 0.903857 -T 16.633179
n -t 18.000000 -s 8 -x 46.366023 -y 48.150582 -U 0.853494 -V -0.521103 -T 2.534958
n -t 18.000000 -s 4 -x 63.999379 -y 22.564621 -U 0.000000 -V 0.000000 -T 0.000000
n -t 18.000000 -s 5 -x 74.650495 -y 55.276703 -U 0.000000 -V 0.000000 -T 0.000000
n -t 18.000000 -s 6 -x 14.562627 -y 26.241414 -U 0.000000 -V 0.000000 -T 0.000000
n -t 18.000000 -s 7 -x 51.118554 -y 73.381395 -U 0.000000 -V 0.000000 -T 0.000000
n -t 18.000000 -s 9 -x 14.397812 -y 12.783110 -U 0.000000 -V 0.000000 -T 0.000000
n -t 18.000000 -s 0 -x 34.106563 -y 92.850350 -U 0.000000 -V 0.000000 -T 0.000000
n -t 18.000000 -s 1 -x 10.206489 -y 58.234921 -U 0.000000 -V 0.000000 -T 0.000000
n -t 18.000000 -s 2 -x 11.810252 -y 88.542946 -U 0.000000 -V 0.000000 -T 0.000000
n -t 19.000000 -s 8 -x 47.219517 -y 47.629479 -U 0.000000 -V 0.000000 -T 0.000000
n -t 19.000000 -s 4 -x 63.999379 -y 22.564621 -U 0.000000 -V 0.000000 -T 0.000000
n -t 19.000000 -s 5 -x 74.650495 -y 55.276703 -U 0.000000 -V 0.000000 -T 0.000000
n -t 19.000000 -s 6 -x 14.562627 -y 26.241414 -U 0.000000 -V 0.000000 -T 0.000000
n -t 19.000000 -s 7 -x 51.118554 -y 73.381395 -U 0.000000 -V 0.000000 -T 0.000000
n -t 19.000000 -s 9 -x 14.397812 -y 12.783110 -U 0.000000 -V 0.000000 -T 0.000000
n -t 19.000000 -s 0 -x 34.106563 -y 92.850350 -U 0.000000 -V 0.000000 -T 0.000000
n -t 19.000000 -s 1 -x 10.206489 -y 58.234921 -U 0.000000 -V 0.000000 -T 0.000000
n -t 19.000000 -s 2 -x 11.810252 -y 88.542946 -U 0.000000 -V 0.000000 -T 0.000000
n -t 19.000000 -s 8 -x 47.219517 -y 47.629479 -U 0.853494 -V -0.521103 -T 11.569916
n -t 19.000000 -s 4 -x 63.999379 -y 22.564621 -U 0.988618 -V -0.150451 -T 14.472932
n -t 19.000000 -s 5 -x 74.650495 -y 55.276703 -U 0.258326 -V -0.966058 -T 14.156854
n -t 19.000000 -s 6 -x 14.562627 -y 26.241414 -U 0.990660 -V -0.136359 -T 42.932754
n -t 19.000000 -s 7 -x 51.118554 -y 73.381395 -U 0.932070 -V -0.362277 -T 29.170563
n -t 19.000000 -s 9 -x 14.397812 -y 12.783110 -U 0.942691 -V 0.333666 -T 22.789385
n -t 19.000000 -s 0 -x 34.106563 -y 92.850350 -U 0.607759 -V -0.794122 -T 37.823903
n -t 19.000000 -s 1 -x 10.206489 -y 58.234921 -U 0.839249 -V -0.543747 -T 30.592443
n -t 19.000000 -s 3 -x 5.251008 -y 16.446091 -U 0.551188 -V 0.834381 -T 55.571119
n -t 19.000000 -s 8 -x 47.219517 -y 47.629479 -U 0.853494 -V -0.521103 -T 4.069916
n -t 19.000000 -s 4 -x 63.999379 -y 22.564621 -U 0.000000 -V 0.000000 -T 0.000000
n -t 19.000000 -s 5 -x 74.650495 -y 55.276703 -U 0.000000 -V 0.000000 -T 0.000000
n -t 19.000000 -s 6 -x 14.562627 -y 26.241414 -U 0.000000 -V 0.000000 -T 0.000000
n -t 19.000000 -s 7 -x 51.118554 -y 73.381395 -U 0.000000 -V 0.000000 -T 0.000000
n -t 19.000000 -s 9 -x 14.397812 -y 12.783110 -U 0.000000 -V 0.000000 -T 0.000000
n -t 19.000000 -s 0 -x 34.106563 -y 92.850350 -U 0.000000 -V 0.000000 -T 0.000000
n -t 19.000000 -s 1 -x 10.206489 -y 58.234921 -U 0.000000 -V 0.000000 -T 0.000000
n -t 19.000000 -s 3 -x 5.251008 -y 16.446091 -U 0.000000 -V 0.000000 -T 0.000000
n -t 20.000000 -s 8 -x 48.073011 -y 47.108376 -U 0.853494 -V -0.521103 -T 5.604874
n -t 20.000000 -s 4 -x 63.999379 -y 22.564621 -U 0.000000 -V 0.000000 -T 0.000000
n -t 20.000000 -s 5 -x 74.650495 -y 55.276703 -U 0.000000 -V 0.000000 -T 0.000000
n -t 20.000000 -s 6 -x 14.562627 -y 26.241414 -U 0.000000 -V 0.000000 -T 0.000000
n -t 20.000000 -s 7 -x 51.118554 -y 73.381395 -U 0.000000 -V 0.000000 -T 0.000000
n -t 20.000000 -s 9 -x 14.397812 -y 12.783110 -U 0.000000 -V 0.000000 -T 0.000000
n -t 20.000000 -s 0 -x 34.106563 -y 92.850350 -U 0.000000 -V 0.000000 -T 0.000000
n -t 20.000000 -s 1 -x 10.206489 -y 58.234921 -U 0.000000 -V 0.000000 -T 0.000000
n -t 20.000000 -s 3 -x 5.251008 -y 16.446091 -U 0.000000 -V 0.000000 -T 0.000000
n -t 21.000000 -s 8 -x 48.926505 -y 46.587274 -U 0.853494 -V -0.521103 -T 7.139832
n -t 21.000000 -s 4 -x 63.999379 -y 22.564621 -U 0.000000 -V 0.000000 -T 0.000000
n -t 21.000000 -s 5 -x 74.650495 -y 55.276703 -U 0.000000 -V 0.000000 -T 0.000000
n -t 21.000000 -s 6 -x 14.562627 -y 26.241414 -U 0.000000 -V 0.000000 -T 0.000000
n -t 21.000000 -s 7 -x 51.118554 -y 73.381395 -U 0.000000 -V 0.000000 -T 0.000000
n -t 21.000000 -s 9 -x 14.397812 -y 12.783110 -U 0.000000 -V 0.000000 -T 0.000000
n -t 21.000000 -s 0 -x 34.106563 -y 92.850350 -U 0.000000 -V 0.000000 -T 0.000000
n -t 21.000000 -s 1 -x 10.206489 -y 58.234921 -U 0.000000 -V 0.000000 -T 0.000000
n -t 21.000000 -s 3 -x 5.251008 -y 16.446091 -U 0.000000 -V 0.000000 -T 0.000000
n -t 22.000000 -s 4 -x 63.999379 -y 22.564621 -U -0.027476 -V 0.999622 -T 7.578512
n -t 23.000000 -s 8 -x 50.633492 -y 45.545068 -U 0.000000 -V 0.000000 -T 0.000000
n -t 23.000000 -s 4 -x 63.971903 -y 23.564243 -U 0.000000 -V 0.000000 -T 0.000000
n -t 23.000000 -s 5 -x 74.650495 -y 55.276703 -U 0.000000 -V 0.000000 -T 0.000000
n -t 23.000000 -s 6 -x 14.562627 -y 26.241414 -U 0.000000 -V 0.000000 -T 0.000000
n -t 23.000000 -s 7 -x 51.118554 -y 73.381395 -U 0.000000 -V 0.000000 -T 0.000000
n -t 23.000000 -s 9 -x 14.397812 -y 12.783110 -U 0.000000 -V 0.000000 -T 0.000000
n -t 23.000000 -s 0 -x 34.106563 -y 92.850350 -U 0.000000 -V 0.000000 -T 0.000000
n -t 23.000000 -s 1 -x 10.206489 -y 58.234921 -U 0.000000 -V 0.000000 -T 0.000000
n -t 23.000000 -s 3 -x 5.251008 -y 16.446091 -U 0.000000 -V 0.000000 -T 0.000000
n -t 23.000000 -s 4 -x 63.971903 -y 23.564243 -U 0.137996 -V 0.990433 -T 12.875404
n -t 23.000000 -s 5 -x 74.650495 -y 55.276703 -U 0.293005 -V -0.956111 -T 42.017556
n -t 23.000000 -s 8 -x 50.633492 -y 45.545068 -U 0.969216 -V -0.246213 -T 37.482224
n -t 23.000000 -s 9 -x 14.397812 -y 12.783110 -U 0.998981 -V 0.045136 -T 51.403230
n -t 23.000000 -s 7 -x 51.118554 -y 73.381395 -U 0.914555 -V -0.404462 -T 39.192086
n -t 23.000000 -s 6 -x 14.562627 -y 26.241414 -U 0.937370 -V -0.348335 -T 31.975436
n -t 23.000000 -s 1 -x 10.206489 -y 58.234921 -U 0.999919 -V -0.012697 -T 55.546642
n -t 23.000000 -s 4 -x 63.971903 -y 23.564243 -U 0.137996 -V 0.990433 -T 5.375404
n -t 23.000000 -s 5 -x 74.650495 -y 55.276703 -U 0.000000 -V 0.000000 -T 0.000000