n -t * -s 0  -x 39.110140000000001 -y 75.578519999999997 -Z 0 -z 1  -v circle -c black
n -t * -s 1  -x 86.140940000000001 -y 84.673500000000004 -Z 0 -z 1  -v circle -c black
n -t * -s 2  -x 93.769189999999995 -y 9.6459519999999994 -Z 0 -z 1  -v circle -c black
n -t * -s 3  -x 57.001579999999997 -y 70.577060000000003 -Z 0 -z 1  -v circle -c black
n -t * -s 4  -x 42.574109999999997 -y 37.240430000000003 -Z 0 -z 1  -v circle -c black
n -t * -s 5  -x 48.294789999999999 -y 60.568809999999999 -Z 0 -z 1  -v circle -c black
n -t * -s 6  -x 5.6261929999999998 -y 43.977370000000001 -Z 0 -z 1  -v circle -c black
n -t * -s 7  -x 53.75535 -y 12.35407 -Z 0 -z 1  -v circle -c black
n -t * -s 8  -x 81.671800000000005 -y 21.374890000000001 -Z 0 -z 1  -v circle -c black
n -t * -s 9  -x 94.233999999999995 -y 61.679760000000002 -Z 0 -z 1  -v circle -c black
n -t * -s 10  -x 82.17662 -y 11.52918 -Z 0 -z 2  -v circle -c black
V -t * -v 1.0a5 -a 0
W -t * -x 100 -y 100
A -t * -n 1 -p 0 -o 0x7fffffff -c 30 -a 1
A -t * -h 1 -m 1073741823 -s 0
n -t 0 -s 10 -S COLOR -c red -o black -i red -I black
n -t 0.000000 -s 10 -x 82.176620 -y 11.529180 -U -2.011055 -V 1.078478 -T 35.384727
n -t 0.000000 -s 8 -x 81.671800 -y 21.374890 -U 0.051206 -V -0.998688 -T 9.858643
n -t 0.000000 -s 4 -x 42.574110 -y 37.240430 -U 0.971364 -V -0.237597 -T 18.931429
n -t 0.000000 -s 7 -x 53.755350 -y 12.354070 -U 0.993515 -V -0.113698 -T 7.255113
n -t 0.000000 -s 2 -x 93.769190 -y 9.645952 -U -0.448586 -V 0.893740 -T 25.842462
n -t 0.000000 -s 5 -x 48.294790 -y 60.568810 -U 0.204731 -V -0.978818 -T 61.879519
n -t 0.000000 -s 9 -x 94.234000 -y 61.679760 -U 0.195416 -V -0.980720 -T 29.506245
n -t 0.000000 -s 8 -x 81.671800 -y 21.374890 -U 0.051206 -V -0.998688 -T 2.358643
n -t 0.000000 -s 4 -x 42.574110 -y 37.240430 -U 0.000000 -V 0.000000 -T 0.000000
n -t 0.000000 -s 7 -x 53.755350 -y 12.354070 -U 0.000000 -V 0.000000 -T 0.000000
n -t 0.000000 -s 2 -x 93.769190 -y 9.645952 -U 0.000000 -V 0.000000 -T 0.000000
n -t 0.000000 -s 5 -x 48.294790 -y 60.568810 -U 0.000000 -V 0.000000 -T 0.000000
n -t 0.000000 -s 9 -x 94.234000 -y 61.679760 -U 0.000000 -V 0.000000 -T 0.000000
n -t 1.000000 -s 8 -x 81.723006 -y 20.376202 -U -0.196569 -V -0.980490 -T 0.423124
n -t 1.000000 -s 4 -x 42.574110 -y 37.240430 -U 0.000000 -V 0.000000 -T 0.000000
n -t 1.000000 -s 7 -x 53.755350 -y 12.354070 -U 0.000000 -V 0.000000 -T 0.000000
n -t 1.000000 -s 2 -x 93.769190 -y 9.645952 -U 0.000000 -V 0.000000 -T 0.000000
n -t 1.000000 -s 5 -x 48.294790 -y 60.568810 -U 0.000000 -V 0.000000 -T 0.000000
n -t 1.000000 -s 9 -x 94.234000 -y 61.679760 -U 0.000000 -V 0.000000 -T 0.000000
n -t 2.000000 -s 4 -x 42.574110 -y 37.240430 -U 0.000000 -V 0.000000 -T 0.000000
n -t 2.000000 -s 7 -x 53.755350 -y 12.354070 -U 0.000000 -V 0.000000 -T 0.000000
n -t 2.000000 -s 2 -x 93.769190 -y 9.645952 -U 0.000000 -V 0.000000 -T 0.000000
n -t 2.000000 -s 5 -x 48.294790 -y 60.568810 -U 0.000000 -V 0.000000 -T 0.000000
n -t 2.000000 -s 9 -x 94.234000 -y 61.679760 -U 0.000000 -V 0.000000 -T 0.000000
n -t 3.000000 -s 8 -x 81.639833 -y 19.961333 -U -0.726637 -V -0.687021 -T 0.064129
n -t 3.000000 -s 4 -x 42.574110 -y 37.240430 -U 0.000000 -V 0.000000 -T 0.000000
n -t 3.000000 -s 7 -x 53.755350 -y 12.354070 -U 0.000000 -V 0.000000 -T 0.000000
n -t 3.000000 -s 2 -x 93.769190 -y 9.645952 -U 0.000000 -V 0.000000 -T 0.000000
n -t 3.000000 -s 5 -x 48.294790 -y 60.568810 -U 0.000000 -V 0.000000 -T 0.000000
n -t 3.000000 -s 9 -x 94.234000 -y 61.679760 -U 0.000000 -V 0.000000 -T 0.000000
n -t 4.000000 -s 8 -x 81.593234 -y 19.917275 -U -0.877666 -V -0.479273 -T 1.000764
n -t 4.000000 -s 4 -x 42.574110 -y 37.240430 -U 0.000000 -V 0.000000 -T 0.000000
n -t 4.000000 -s 7 -x 53.755350 -y 12.354070 -U 0.000000 -V 0.000000 -T 0.000000
n -t 4.000000 -s 2 -x 93.769190 -y 9.645952 -U 0.000000 -V 0.000000 -T 0.000000
n -t 4.000000 -s 5 -x 48.294790 -y 60.568810 -U 0.000000 -V 0.000000 -T 0.000000
n -t 4.000000 -s 9 -x 94.234000 -y 61.679760 -U 0.000000 -V 0.000000 -T 0.000000
n -t 5.000000 -s 8 -x 80.715568 -y 19.438003 -U -0.959706 -V -0.281007 -T 1.455059
n -t 5.000000 -s 4 -x 42.574110 -y 37.240430 -U 0.000000 -V 0.000000 -T 0.000000
n -t 5.000000 -s 7 -x 53.755350 -y 12.354070 -U 0.000000 -V 0.000000 -T 0.000000
n -t 5.000000 -s 2 -x 93.769190 -y 9.645952 -U 0.000000 -V 0.000000 -T 0.000000
n -t 5.000000 -s 5 -x 48.294790 -y 60.568810 -U 0.000000 -V 0.000000 -T 0.000000
n -t 5.000000 -s 9 -x 94.234000 -y 61.679760 -U 0.000000 -V 0.000000 -T 0.000000
n -t 6.000000 -s 8 -x 79.755863 -y 19.156996 -U 0.000000 -V 0.000000 -T 0.000000
n -t 6.000000 -s 4 -x 42.574110 -y 37.240430 -U 0.000000 -V 0.000000 -T 0.000000
n -t 6.000000 -s 7 -x 53.755350 -y 12.354070 -U 0.000000 -V 0.000000 -T 0.000000
n -t 6.000000 -s 2 -x 93.769190 -y 9.645952 -U 0.000000 -V 0.000000 -T 0.000000
n -t 6.000000 -s 5 -x 48.294790 -y 60.568810 -U 0.000000 -V 0.000000 -T 0.000000
n -t 6.000000 -s 9 -x 94.234000 -y 61.679760 -U 0.000000 -V 0.000000 -T 0.000000
n -t 6.000000 -s 8 -x 79.755863 -y 19.156996 -U -0.992883 -V -0.119092 -T 9.714708
n -t 6.000000 -s 4 -x 42.574110 -y 37.240430 -U 0.954614 -V 0.297847 -T 6.623601
n -t 6.000000 -s 7 -x 53.755350 -y 12.354070 -U -0.652249 -V 0.758005 -T 7.448474
n -t 6.000000 -s 5 -x 48.294790 -y 60.568810 -U 0.714600 -V -0.699534 -T 30.528282
n -t 6.000000 -s 2 -x 93.769190 -y 9.645952 -U -0.977666 -V -0.210164 -T 45.897166
n -t 6.000000 -s 9 -x 94.234000 -y 61.679760 -U -0.128475 -V -0.991713 -T 22.654250
n -t 6.000000 -s 3 -x 57.001580 -y 70.577060 -U 0.182613 -V -0.983185 -T 71.784119
n -t 6.000000 -s 4 -x 42.574110 -y 37.240430 -U 0.890842 -V -0.454313 -T 19.004022
n -t 6.000000 -s 8 -x 79.755863 -y 19.156996 -U -0.992883 -V -0.119092 -T 2.214708
n -t 6.000000 -s 4 -x 42.574110 -y 37.240430 -U 0.000000 -V 0.000000 -T 0.000000
n -t 6.000000 -s 7 -x 53.755350 -y 12.354070 -U 0.000000 -V 0.000000 -T 0.000000
n -t 6.000000 -s 5 -x 48.294790 -y 60.568810 -U 0.000000 -V 0.000000 -T 0.000000
n -t 6.000000 -s 2 -x 93.769190 -y 9.645952 -U 0.000000 -V 0.000000 -T 0.000000
n -t 6.000000 -s 9 -x 94.234000 -y 61.679760 -U 0.000000 -V 0.000000 -T 0.000000
n -t 6.000000 -s 3 -x 57.001580 -y 70.577060 -U 0.000000 -V 0.000000 -T 0.000000
n -t 7.000000 -s 4 -x 42.574110 -y 37.240430 -U 0.890842 -V -0.454313 -T 19.004022
n -t 7.000000 -s 8 -x 78.762979 -y 19.037903 -U -0.999993 -V 0.003809 -T 3.163819
n -t 7.000000 -s 4 -x 42.574110 -y 37.240430 -U 0.000000 -V 0.000000 -T 0.000000
n -t 7.000000 -s 7 -x 53.755350 -y 12.354070 -U 0.000000 -V 0.000000 -T 0.000000
n -t 7.000000 -s 5 -x 48.294790 -y 60.568810 -U 0.000000 -V 0.000000 -T 0.000000
n -t 7.000000 -s 2 -x 93.769190 -y 9.645952 -U 0.000000 -V 0.000000 -T 0.000000
n -t 7.000000 -s 9 -x 94.234000 -y 61.679760 -U 0.000000 -V 0.000000 -T 0.000000
n -t 7.000000 -s 3 -x 57.001580 -y 70.577060 -U 0.000000 -V 0.000000 -T 0.000000
n -t 8.000000 -s 4 -x 42.574110 -y 37.240430 -U 0.890842 -V -0.454313 -T 19.004022
n -t 8.000000 -s 8 -x 77.762987 -y 19.041713 -U -0.995468 -V 0.095097 -T 4.227954
n -t 8.000000 -s 4 -x 42.574110 -y 37.240430 -U 0.000000 -V 0.000000 -T 0.000000
n -t 8.000000 -s 7 -x 53.755350 -y 12.354070 -U 0.000000 -V 0.000000 -T 0.000000
n -t 8.000000 -s 5 -x 48.294790 -y 60.568810 -U 0.000000 -V 0.000000 -T 0.000000
n -t 8.000000 -s 2 -x 93.769190 -y 9.645952 -U 0.000000 -V 0.000000 -T 0.000000
n -t 8.000000 -s 9 -x 94.234000 -y 61.679760 -U 0.000000 -V 0.000000 -T 0.000000
n -t 8.000000 -s 3 -x 57.001580 -y 70.577060 -U 0.000000 -V 0.000000 -T 0.000000
n -t 9.000000 -s 4 -x 42.574110 -y 37.240430 -U 0.890842 -V -0.454313 -T 19.004022
n -t 9.000000 -s 8 -x 76.767519 -y 19.136810 -U -0.986600 -V 0.163159 -T 5.362754
n -t 9.000000 -s 4 -x 42.574110 -y 37.240430 -U 0.000000 -V 0.000000 -T 0.000000
n -t 9.000000 -s 7 -x 53.755350 -y 12.354070 -U 0.000000 -V 0.000000 -T 0.000000
n -t 9.000000 -s 5 -x 48.294790 -y 60.568810 -U 0.000000 -V 0.000000 -T 0.000000
n -t 9.000000 -s 2 -x 93.769190 -y 9.645952 -U 0.000000 -V 0.000000 -T 0.000000
n -t 9.000000 -s 9 -x 94.234000 -y 61.679760 -U 0.000000 -V 0.000000 -T 0.000000
n -t 9.000000 -s 3 -x 57.001580 -y 70.577060 -U 0.000000 -V 0.000000 -T 0.000000
n -t 10.000000 -s 4 -x 42.574110 -y 37.240430 -U 0.890842 -V -0.454313 -T 19.004022
n -t 10.000000 -s 7 -x 53.755350 -y 12.354070 -U 0.640676 -V 0.767811 -T 5.471798
n -t 10.000000 -s 8 -x 75.780919 -y 19.299968 -U 0.000000 -V 0.000000 -T 0.000000
n -t 10.000000 -s 4 -x 42.574110 -y 37.240430 -U 0.000000 -V 0.000000 -T 0.000000
n -t 10.000000 -s 5 -x 48.294790 -y 60.568810 -U 0.000000 -V 0.000000 -T 0.000000
n -t 10.000000 -s 2 -x 93.769190 -y 9.645952 -U 0.000000 -V 0.000000 -T 0.000000
n -t 10.000000 -s 9 -x 94.234000 -y 61.679760 -U 0.000000 -V 0.000000 -T 0.000000
n -t 10.000000 -s 3 -x 57.001580 -y 70.577060 -U 0.000000 -V 0.000000 -T 0.000000
n -t 11.000000 -s 4 -x 42.574110 -y 37.240430 -U 0.890842 -V -0.454313 -T 19.004022
n -t 11.000000 -s 7 -x 54.396026 -y 13.121881 -U 0.482586 -V 0.875849 -T 4.226403
n -t 11.000000 -s 8 -x 75.780919 -y 19.299968 -U 0.000000 -V 0.000000 -T 0.000000
n -t 11.000000 -s 4 -x 42.574110 -y 37.240430 -U 0.000000 -V 0.000000 -T 0.000000
n -t 11.000000 -s 5 -x 48.294790 -y 60.568810 -U 0.000000 -V 0.000000 -T 0.000000
n -t 11.000000 -s 2 -x 93.769190 -y 9.645952 -U 0.000000 -V 0.000000 -T 0.000000
n -t 11.000000 -s 9 -x 94.234000 -y 61.679760 -U 0.000000 -V 0.000000 -T 0.000000
n -t 11.000000 -s 3 -x 57.001580 -y 70.577060 -U 0.000000 -V 0.000000 -T 0.000000
n -t 12.000000 -s 8 -x 75.780919 -y 19.299968 -U 0.000000 -V 0.000000 -T 0.000000
n -t 12.000000 -s 4 -x 42.574110 -y 37.240430 -U 0.000000 -V 0.000000 -T 0.000000
n -t 12.000000 -s 7 -x 54.878612 -y 13.997730 -U 0.000000 -V 0.000000 -T 0.000000
n -t 12.000000 -s 5 -x 48.294790 -y 60.568810 -U 0.000000 -V 0.000000 -T 0.000000
n -t 12.000000 -s 2 -x 93.769190 -y 9.645952 -U 0.000000 -V 0.000000 -T 0.000000
n -t 12.000000 -s 9 -x 94.234000 -y 61.679760 -U 0.000000 -V 0.000000 -T 0.000000
n -t 12.000000 -s 3 -x 57.001580 -y 70.577060 -U 0.000000 -V 0.000000 -T 0.000000
n -t 12.000000 -s 7 -x 54.878612 -y 13.997730 -U 0.289309 -V 0.957236 -T 10.941073
n -t 12.000000 -s 4 -x 42.574110 -y 37.240430 -U -0.562420 -V 0.826852 -T 10.211853
n -t 12.000000 -s 6 -x 5.626193 -y 43.977370 -U 0.847954 -V -0.530069 -T 36.799821
n -t 12.000000 -s 5 -x 48.294790 -y 60.568810 -U 0.547914 -V -0.836535 -T 17.793269
n -t 12.000000 -s 8 -x 75.780919 -y 19.299968 -U -0.924645 -V -0.380830 -T 42.124444
n -t 12.000000 -s 9 -x 94.234000 -y 61.679760 -U -0.683478 -V -0.729972 -T 21.912691
n -t 12.000000 -s 2 -x 93.769190 -y 9.645952 -U -0.984386 -V -0.176024 -T 36.291891
n -t 12.000000 -s 3 -x 57.001580 -y 70.577060 -U 0.434709 -V -0.900571 -T 51.196559
n -t 12.000000 -s 0 -x 39.110140 -y 75.578520 -U 0.485355 -V -0.874317 -T 82.716885
n -t 12.000000 -s 4 -x 42.574110 -y 37.240430 -U 0.913709 -V -0.406369 -T 5.322538
n -t 12.000000 -s 7 -x 54.878612 -y 13.997730 -U 0.289309 -V 0.957236 -T 3.441073
n -t 12.000000 -s 4 -x 42.574110 -y 37.240430 -U 0.000000 -V 0.000000 -T 0.000000
n -t 12.000000 -s 6 -x 5.626193 -y 43.977370 -U 0.000000 -V 0.000000 -T 0.000000
n -t 12.000000 -s 5 -x 48.294790 -y 60.568810 -U 0.000000 -V 0.000000 -T 0.000000
n -t 12.000000 -s 8 -x 75.780919 -y 19.299968 -U 0.000000 -V 0.000000 -T 0.000000
n -t 12.000000 -s 9 -x 94.234000 -y 61.679760 -U 0.000000 -V 0.000000 -T 0.000000
n -t 12.000000 -s 2 -x 93.769190 -y 9.645952 -U 0.000000 -V 0.000000 -T 0.000000
n -t 12.000000 -s 3 -x 57.001580 -y 70.577060 -U 0.000000 -V 0.000000 -T 0.000000
n -t 12.000000 -s 0 -x 39.110140 -y 75.578520 -U 0.000000 -V 0.000000 -T 0.000000
n -t 13.000000 -s 4 -x 42.574110 -y 37.240430 -U 0.913709 -V -0.406369 -T 5.322538
n -t 13.000000 -s 7 -x 55.167921 -y 14.954966 -U 0.081375 -V 0.996684 -T 3.129681
n -t 13.000000 -s 4 -x 42.574110 -y 37.240430 -U 0.000000 -V 0.000000 -T 0.000000
n -t 13.000000 -s 6 -x 5.626193 -y 43.977370 -U 0.000000 -V 0.000000 -T 0.000000
n -t 13.000000 -s 5 -x 48.294790 -y 60.568810 -U 0.000000 -V 0.000000 -T 0.000000
n -t 13.000000 -s 8 -x 75.780919 -y 19.299968 -U 0.000000 -V 0.000000 -T 0.000000
n -t 13.000000 -s 9 -x 94.234000 -y 61.679760 -U 0.000000 -V 0.000000 -T 0.000000
n -t 13.000000 -s 2 -x 93.769190 -y 9.645952 -U 0.000000 -V 0.000000 -T 0.000000
n -t 13.000000 -s 3 -x 57.001580 -y 70.577060 -U 0.000000 -V 0.000000 -T 0.000000
n -t 13.000000 -s 0 -x 39.110140 -y 75.578520 -U 0.000000 -V 0.000000 -T 0.000000
n -t 14.000000 -s 4 -x 42.574110 -y 37.240430 -U 0.913709 -V -0.406369 -T 5.322538
n -t 14.000000 -s 7 -x 55.249296 -y 15.951649 -U -0.114217 -V 0.993456 -T 3.246550
n -t 14.000000 -s 4 -x 42.574110 -y 37.240430 -U 0.000000 -V 0.000000 -T 0.000000
n -t 14.000000 -s 6 -x 5.626193 -y 43.977370 -U 0.000000 -V 0.000000 -T 0.000000
n -t 14.000000 -s 5 -x 48.294790 -y 60.568810 -U 0.000000 -V 0.000000 -T 0.000000
n -t 14.000000 -s 8 -x 75.780919 -y 19.299968 -U 0.000000 -V 0.000000 -T 0.000000
n -t 14.000000 -s 9 -x 94.234000 -y 61.679760 -U 0.000000 -V 0.000000 -T 0.000000
n -t 14.000000 -s 2 -x 93.769190 -y 9.645952 -U 0.000000 -V 0.000000 -T 0.000000
n -t 14.000000 -s 3 -x 57.001580 -y 70.577060 -U 0.000000 -V 0.000000 -T 0.000000
n -t 14.000000 -s 0 -x 39.110140 -y 75.578520 -U 0.000000 -V 0.000000 -T 0.000000
n -t 15.000000 -s 4 -x 42.574110 -y 37.240430 -U 0.913709 -V -0.406369 -T 5.322538
n -t 15.000000 -s 7 -x 55.135079 -y 16.945105 -U -0.278814 -V 0.960345 -T 3.705602
n -t 15.000000 -s 4 -x 42.574110 -y 37.240430 -U 0.000000 -V 0.000000 -T 0.000000
n -t 15.000000 -s 6 -x 5.626193 -y 43.977370 -U 0.000000 -V 0.000000 -T 0.000000
n -t 15.000000 -s 5 -x 48.294790 -y 60.568810 -U 0.000000 -V 0.000000 -T 0.000000
n -t 15.000000 -s 8 -x 75.780919 -y 19.299968 -U 0.000000 -V 0.000000 -T 0.000000
n -t 15.000000 -s 9 -x 94.234000 -y 61.679760 -U 0.000000 -V 0.000000 -T 0.000000
n -t 15.000000 -s 2 -x 93.769190 -y 9.645952 -U 0.000000 -V 0.000000 -T 0.000000
n -t 15.000000 -s 3 -x 57.001580 -y 70.577060 -U 0.000000 -V 0.000000 -T 0.000000
n -t 15.000000 -s 0 -x 39.110140 -y 75.578520 -U 0.000000 -V 0.000000 -T 0.000000
n -t 16.000000 -s 4 -x 42.574110 -y 37.240430 -U 0.913709 -V -0.406369 -T 5.322538
n -t 16.000000 -s 4 -x 42.574110 -y 37.240430 -U 0.659862 -V -0.751387 -T 3.753323
n -t 16.000000 -s 7 -x 54.856265 -y 17.905450 -U 0.000000 -V 0.000000 -T 0.000000
n -t 16.000000 -s 6 -x 5.626193 -y 43.977370 -U 0.000000 -V 0.000000 -T 0.000000
n -t 16.000000 -s 5 -x 48.294790 -y 60.568810 -U 0.000000 -V 0.000000 -T 0.000000
n -t 16.000000 -s 8 -x 75.780919 -y 19.299968 -U 0.000000 -V 0.000000 -T 0.000000
n -t 16.000000 -s 9 -x 94.234000 -y 61.679760 -U 0.000000 -V 0.000000 -T 0.000000
n -t 16.000000 -s 2 -x 93.769190 -y 9.645952 -U 0.000000 -V 0.000000 -T 0.000000
n -t 16.000000 -s 3 -x 57.001580 -y 70.577060 -U 0.000000 -V 0.000000 -T 0.000000
n -t 16.000000 -s 0 -x 39.110140 -y 75.578520 -U 0.000000 -V 0.000000 -T 0.000000
n -t 17.000000 -s 4 -x 43.233972 -y 36.489043 -U 0.947978 -V -0.318337 -T 4.434061
n -t 17.000000 -s 4 -x 43.233972 -y 36.489043 -U 0.583027 -V -0.812453 -T 0.655228
n -t 17.000000 -s 7 -x 54.856265 -y 17.905450 -U 0.000000 -V 0.000000 -T 0.000000
n -t 17.000000 -s 6 -x 5.626193 -y 43.977370 -U 0.000000 -V 0.000000 -T 0.000000
n -t 17.000000 -s 5 -x 48.294790 -y 60.568810 -U 0.000000 -V 0.000000 -T 0.000000
n -t 17.000000 -s 8 -x 75.780919 -y 19.299968 -U 0.000000 -V 0.000000 -T 0.000000
n -t 17.000000 -s 9 -x 94.234000 -y 61.679760 -U 0.000000 -V 0.000000 -T 0.000000
n -t 17.000000 -s 2 -x 93.769190 -y 9.645952 -U 0.000000 -V 0.000000 -T 0.000000
n -t 17.000000 -s 3 -x 57.001580 -y 70.577060 -U 0.000000 -V 0.000000 -T 0.000000
n -t 17.000000 -s 0 -x 39.110140 -y 75.578520 -U 0.000000 -V 0.000000 -T 0.000000
n -t 18.000000 -s 7 -x 54.856265 -y 17.905450 -U 0.000000 -V 0.000000 -T 0.000000
n -t 18.000000 -s 4 -x 43.615987 -y 35.956701 -U 0.000000 -V 0.000000 -T 0.000000
n -t 18.000000 -s 6 -x 5.626193 -y 43.977370 -U 0.000000 -V 0.000000 -T 0.000000
n -t 18.000000 -s 5 -x 48.294790 -y 60.568810 -U 0.000000 -V 0.000000 -T 0.000000
n -t 18.000000 -s 8 -x 75.780919 -y 19.299968 -U 0.000000 -V 0.000000 -T 0.000000
n -t 18.000000 -s 9 -x 94.234000 -y 61.679760 -U 0.000000 -V 0.000000 -T 0.000000
n -t 18.000000 -s 2 -x 93.769190 -y 9.645952 -U 0.000000 -V 0.000000 -T 0.000000
n -t 18.000000 -s 3 -x 57.001580 -y 70.577060 -U 0.000000 -V 0.000000 -T 0.000000
n -t 18.000000 -s 0 -x 39.110140 -y 75.578520 -U 0.000000 -V 0.000000 -T 0.000000
n -t 18.000000 -s 4 -x 43.615987 -y 35.956701 -U 0.426046 -V -0.904701 -T 5.543174
n -t 18.000000 -s 6 -x 5.626193 -y 43.977370 -U 0.919570 -V 0.392925 -T 20.812152
n -t 18.000000 -s 7 -x 54.856265 -y 17.905450 -U -0.917594 -V 0.397519 -T 32.794273
n -t 18.000000 -s 5 -x 48.294790 -y 60.568810 -U -0.265514 -V -0.964107 -T 8.727062
n -t 18.000000 -s 8 -x 75.780919 -y 19.299968 -U -0.982852 -V -0.184396 -T 51.906582
n -t 18.000000 -s 3 -x 57.001580 -y 70.577060 -U 0.484001 -V -0.875068 -T 21.052168
n -t 18.000000 -s 2 -x 93.769190 -y 9.645952 -U -0.999999 -V 0.001729 -T 47.791625
n -t 18.000000 -s 9 -x 94.234000 -y 61.679760 -U -0.660542 -V -0.750789 -T 40.940880
n -t 18.000000 -s 0 -x 39.110140 -y 75.578520 -U 0.392258 -V -0.919855 -T 71.587291
n -t 18.000000 -s 6 -x 5.626193 -y 43.977370 -U 0.000000 -V 0.000000 -T 0.000000
n -t 18.000000 -s 7 -x 54.856265 -y 17.905450 -U 0.000000 -V 0.000000 -T 0.000000
n -t 18.000000 -s 5 -x 48.294790 -y 60.568810 -U 0.000000 -V 0.000000 -T 0.000000
n -t 18.000000 -s 8 -x 75.780919 -y 19.299968 -U 0.000000 -V 0.000000 -T 0.000000
n -t 18.000000 -s 3 -x 57.001580 -y 70.577060 -U 0.000000 -V 0.000000 -T 0.000000
n -t 18.000000 -s 2 -x 93.769190 -y 9.645952 -U 0.000000 -V 0.000000 -T 0.000000
n -t 18.000000 -s 9 -x 94.234000 -y 61.679760 -U 0.000000 -V 0.000000 -T 0.000000
n -t 18.000000 -s 0 -x 39.110140 -y 75.578520 -U 0.000000 -V 0.000000 -T 0.000000
n -t 19.000000 -s 6 -x 5.626193 -y 43.977370 -U 0.000000 -V 0.000000 -T 0.000000
n -t 19.000000 -s 7 -x 54.856265 -y 17.905450 -U 0.000000 -V 0.000000 -T 0.000000
n -t 19.000000 -s 5 -x 48.294790 -y 60.568810 -U 0.000000 -V 0.000000 -T 0.000000
n -t 19.000000 -s 8 -x 75.780919 -y 19.299968 -U 0.000000 -V 0.000000 -T 0.000000
n -t 19.000000 -s 3 -x 57.001580 -y 70.577060 -U 0.000000 -V 0.000000 -T 0.000000
n -t 19.000000 -s 2 -x 93.769190 -y 9.645952 -U 0.000000 -V 0.000000 -T 0.000000
n -t 19.000000 -s 9 -x 94.234000 -y 61.679760 -U 0.000000 -V 0.000000 -T 0.000000
n -t 19.000000 -s 0 -x 39.110140 -y 75.578520 -U 0.000000 -V 0.000000 -T 0.000000
n -t 20.000000 -s 6 -x 5.626193 -y 43.977370 -U 0.000000 -V 0.000000 -T 0.000000
n -t 20.000000 -s 7 -x 54.856265 -y 17.905450 -U 0.000000 -V 0.000000 -T 0.000000
n -t 20.000000 -s 5 -x 48.294790 -y 60.568810 -U 0.000000 -V 0.000000 -T 0.000000
n -t 20.000000 -s 8 -x 75.780919 -y 19.299968 -U 0.000000 -V 0.000000 -T 0.000000
n -t 20.000000 -s 3 -x 57.001580 -y 70.577060 -U 0.000000 -V 0.000000 -T 0.000000
n -t 20.000000 -s 2 -x 93.769190 -y 9.645952 -U 0.000000 -V 0.000000 -T 0.000000
n -t 20.000000 -s 9 -x 94.234000 -y 61.679760 -U 0.000000 -V 0.000000 -T 0.000000
n -t 20.000000 -s 0 -x 39.110140 -y 75.578520 -U 0.000000 -V 0.000000 -T 0.000000
n -t 21.000000 -s 6 -x 5.626193 -y 43.977370 -U 0.000000 -V 0.000000 -T 0.000000
n -t 21.000000 -s 7 -x 54.856265 -y 17.905450 -U 0.000000 -V 0.000000 -T 0.000000
n -t 21.000000 -s 5 -x 48.294790 -y 60.568810 -U 0.000000 -V 0.000000 -T 0.000000
n -t 21.000000 -s 8 -x 75.780919 -y 19.299968 -U 0.000000 -V 0.000000 -T 0.000000
n -t 21.000000 -s 3 -x 57.001580 -y 70.577060 -U 0.000000 -V 0.000000 -T 0.000000
n -t 21.000000 -s 2 -x 93.769190 -y 9.645952 -U 0.000000 -V 0.000000 -T 0.000000
n -t 21.000000 -s 9 -x 94.234000 -y 61.679760 -U 0.000000 -V 0.000000 -T 0.000000
n -t 21.000000 -s 0 -x 39.110140 -y 75.578520 -U 0.000000 -V 0.000000 -T 0.000000
n -t 22.000000 -s 4 -x 45.320173 -y 32.337896 -U -0.930070 -V 0.367382 -T 0.442147
n -t 22.000000 -s 6 -x 5.626193 -y 43.977370 -U 0.000000 -V 0.000000 -T 0.000000
n -t 22.000000 -s 7 -x 54.856265 -y 17.905450 -U 0.000000 -V 0.000000 -T 0.000000
n -t 22.000000 -s 5 -x 48.294790 -y 60.568810 -U 0.000000 -V 0.000000 -T 0.000000
n -t 22.000000 -s 8 -x 75.780919 -y 19.299968 -U 0.000000 -V 0.000000 -T 0.000000
n -t 22.000000 -s 3 -x 57.001580 -y 70.577060 -U 0.000000 -V 0.000000 -T 0.000000
n -t 22.000000 -s 2 -x 93.769190 -y 9.645952 -U 0.000000 -V 0.000000 -T 0.000000
n -t 22.000000 -s 9 -x 94.234000 -y 61.679760 -U 0.000000 -V 0.000000 -T 0.000000
n -t 22.000000 -s 0 -x 39.110140 -y 75.578520 -U 0.000000 -V 0.000000 -T 0.000000
n -t 23.000000 -s 4 -x 44.908945 -y 32.500333 -U -0.919794 -V 0.392401 -T 2.270209
n -t 23.000000 -s 6 -x 5.626193 -y 43.977370 -U 0.000000 -V 0.000000 -T 0.000000
n -t 23.000000 -s 7 -x 54.856265 -y 17.905450 -U 0.000000 -V 0.000000 -T 0.000000
n -t 23.000000 -s 5 -x 48.294790 -y 60.568810 -U 0.000000 -V 0.000000 -T 0.000000
n -t 23.000000 -s 8 -x 75.780919 -y 19.299968 -U 0.000000 -V 0.000000 -T 0.000000
n -t 23.000000 -s 3 -x 57.001580 -y 70.577060 -U 0.000000 -V 0.000000 -T 0.000000
n -t 23.000000 -s 2 -x 93.769190 -y 9.645952 -U 0.000000 -V 0.000000 -T 0.000000
n -t 23.000000 -s 9 -x 94.234000 -y 61.679760 -U 0.000000 -V 0.000000 -T 0.000000
n -t 23.000000 -s 0 -x 39.110140 -y 75.578520 -U 0.000000 -V 0.000000 -T 0.000000
n -t 24.000000 -s 4 -x 43.989151 -y 32.892734 -U 0.000000 -V 0.000000 -T 0.000000
n -t 24.000000 -s 6 -x 5.626193 -y 43.977370 -U 0.000000 -V 0.000000 -T 0.000000
n -t 24.000000 -s 7 -x 54.856265 -y 17.905450 -U 0.000000 -V 0.000000 -T 0.000000
n -t 24.000000 -s 5 -x 48.294790 -y 60.568810 -U 0.000000 -V 0.000000 -T 0.000000
n -t 24.000000 -s 8 -x 75.780919 -y 19.299968 -U 0.000000 -V 0.000000 -T 0.000000
n -t 24.000000 -s 3 -x 57.001580 -y 70.577060 -U 0.000000 -V 0.000000 -T 0.000000
n -t 24.000000 -s 2 -x 93.769190 -y 9.645952 -U 0.000000 -V 0.000000 -T 0.000000
n -t 24.000000 -s 9 -x 94.234000 -y 61.679760 -U 0.000000 -V 0.000000 -T 0.000000
n -t 24.000000 -s 0 -x 39.110140 -y 75.578520 -U 0.000000 -V 0.000000 -T 0.000000
n -t 24.000000 -s 4 -x 43.989151 -y 32.892734 -U -0.912433 -V 0.409227 -T 11.045024
n -t 24.000000 -s 6 -x 5.626193 -y 43.977370 -U 0.434761 -V 0.900546 -T 16.266225
n -t 24.000000 -s 5 -x 48.294790 -y 60.568810 -U -0.838247 -V -0.545291 -T 42.465652
n -t 24.000000 -s 0 -x 39.110140 -y 75.578520 -U -0.293191 -V -0.956054 -T 17.731911
n -t 24.000000 -s 7 -x 54.856265 -y 17.905450 -U -0.999182 -V -0.040434 -T 42.192663
n -t 24.000000 -s 3 -x 57.001580 -y 70.577060 -U -0.155159 -V -0.987890 -T 12.097714
n -t 24.000000 -s 8 -x 75.780919 -y 19.299968 -U -0.997269 -V -0.073850 -T 41.984253
n -t 24.000000 -s 4 -x 43.989151 -y 32.892734 -U -0.912433 -V 0.409227 -T 3.545024
n -t 24.000000 -s 6 -x 5.626193 -y 43.977370 -U 0.000000 -V 0.000000 -T 0.000000
n -t 24.000000 -s 5 -x 48.294790 -y 60.568810 -U 0.000000 -V 0.000000 -T 0.000000
n -t 24.000000 -s 0 -x 39.110140 -y 75.578520 -U 0.000000 -V 0.000000 -T 0.000000
n -t 24.000000 -s 7 -x 54.856265 -y 17.905450 -U 0.000000 -V 0.000000 -T 0.000000
n -t 24.000000 -s 3 -x 57.001580 -y 70.577060 -U 0.000000 -V 0.000000 -T 0.000000
n -t 24.000000 -s 8 -x 75.780919 -y 19.299968 -U 0.000000 -V 0.000000 -T 0.000000
n -t 25.000000 -s 4 -x 43.076718 -y 33.301960 -U -0.907006 -V 0.421118 -T 4.822371
n -t 25.000000 -s 6 -x 5.626193 -y 43.977370 -U 0.000000 -V 0.000000 -T 0.000000
n -t 25.000000 -s 5 -x 48.294790 -y 60.568810 -U 0.000000 -V 0.000000 -T 0.000000
n -t 25.000000 -s 0 -x 39.110140 -y 75.578520 -U 0.000000 -V 0.000000 -T 0.000000
n -t 25.000000 -s 7 -x 54.856265 -y 17.905450 -U 0.000000 -V 0.000000 -T 0.000000
n -t 25.000000 -s 3 -x 57.001580 -y 70.577060 -U 0.000000 -V 0.000000 -T 0.000000
n -t 25.000000 -s 8 -x 75.780919 -y 19.299968 -U 0.000000 -V 0.000000 -T 0.000000
n -t 26.000000 -s 4 -x 42.169712 -y 33.723078 -U -0.902899 -V 0.429854 -T 6.101209
n -t 26.000000 -s 6 -x 5.626193 -y 43.977370 -U 0.000000 -V 0.000000 -T 0.000000
n -t 26.000000 -s 5 -x 48.294790 -y 60.568810 -U 0.000000 -V 0.000000 -T 0.000000
n -t 26.000000 -s 0 -x 39.110140 -y 75.578520 -U 0.000000 -V 0.000000 -T 0.000000
n -t 26.000000 -s 7 -x 54.856265 -y 17.905450 -U 0.000000 -V 0.000000 -T 0.000000
n -t 26.000000 -s 3 -x 57.001580 -y 70.577060 -U 0.000000 -V 0.000000 -T 0.000000
n -t 26.000000 -s 8 -x 75.780919 -y 19.299968 -U 0.000000 -V 0.000000 -T 0.000000
n -t 27.000000 -s 4 -x 41.266813 -y 34.152932 -U -0.899717 -V 0.436474 -T 7.380977
n -t 27.000000 -s 6 -x 5.626193 -y 43.977370 -U 0.000000 -V 0.000000 -T 0.000000
n -t 27.000000 -s 5 -x 48.294790 -y 60.568810 -U 0.000000 -V 0.000000 -T 0.000000
n -t 27.000000 -s 0 -x 39.110140 -y 75.578520 -U 0.000000 -V 0.000000 -T 0.000000
n -t 27.000000 -s 7 -x 54.856265 -y 17.905450 -U 0.000000 -V 0.000000 -T 0.000000
n -t 27.000000 -s 3 -x 57.001580 -y 70.577060 -U 0.000000 -V 0.000000 -T 0.000000
n -t 27.000000 -s 8 -x 75.780919 -y 19.299968 -U 0.000000 -V 0.000000 -T 0.000000
n -t 28.000000 -s 4 -x 40.367096 -y 34.589405 -U -0.897203 -V 0.441619 -T 8.661349
n -t 29.000000 -s 4 -x 39.469894 -y 35.031024 -U 0.000000 -V 0.000000 -T 0.000000
n -t 29.000000 -s 6 -x 5.626193 -y 43.977370 -U 0.000000 -V 0.000000 -T 0.000000
n -t 29.000000 -s 5 -x 48.294790 -y 60.568810 -U 0.000000 -V 0.000000 -T 0.000000
n -t 29.000000 -s 0 -x 39.110140 -y 75.578520 -U 0.000000 -V 0.000000 -T 0.000000
n -t 29.000000 -s 7 -x 54.856265 -y 17.905450 -U 0.000000 -V 0.000000 -T 0.000000
n -t 29.000000 -s 3 -x 57.001580 -y 70.577060 -U 0.000000 -V 0.000000 -T 0.000000
n -t 29.000000 -s 8 -x 75.780919 -y 19.299968 -U 0.000000 -V 0.000000 -T 0.000000
n -t 29.000000 -s 4 -x 39.469894 -y 35.031024 -U -0.895181 -V 0.445703 -T 17.442130
n -t 29.000000 -s 6 -x 5.626193 -y 43.977370 -U -0.147241 -V 0.989101 -T 20.261716
n -t 29.000000 -s 5 -x 48.294790 -y 60.568810 -U -0.931934 -V -0.362628 -T 48.986250
n -t 29.000000 -s 0 -x 39.110140 -y 75.578520 -U -0.796988 -V -0.603995 -T 19.139688
n -t 29.000000 -s 7 -x 54.856265 -y 17.905450 -U -0.997517 -V 0.070427 -T 52.343405
n -t 29.000000 -s 3 -x 57.001580 -y 70.577060 -U -0.876339 -V -0.481695 -T 13.616123
n -t 29.000000 -s 8 -x 75.780919 -y 19.299968 -U -0.999027 -V 0.044095 -T 51.975438
n -t 29.000000 -s 4 -x 39.469894 -y 35.031024 -U -0.895181 -V 0.445703 -T 9.942130
n -t 30.000000 -s 4 -x 38.574713 -y 35.476728 -U 0.000000 -V 0.000000 -T 0.000000
n -t 30.000000 -s 6 -x 5.478952 -y 44.966471 -U 0.000000 -V 0.000000 -T 0.000000
n -t 30.000000 -s 5 -x 47.362856 -y 60.206182 -U 0.000000 -V 0.000000 -T 0.000000
n -t 30.000000 -s 0 -x 38.313152 -y 74.974525 -U 0.000000 -V 0.000000 -T 0.000000
n -t 30.000000 -s 7 -x 53.858748 -y 17.975877 -U 0.000000 -V 0.000000 -T 0.000000
n -t 30.000000 -s 3 -x 56.125241 -y 70.095365 -U 0.000000 -V 0.000000 -T 0.000000
n -t 30.000000 -s 8 -x 74.781891 -y 19.344064 -U 0.000000 -V 0.000000 -T 0.000000
n -t 30.000000 -s 6 -x 5.478952 -y 44.966471 -U 0.997818 -V -0.066026 -T 16.401820
n -t 30.000000 -s 0 -x 38.313152 -y 74.974525 -U -0.967316 -V -0.253572 -T 38.954550
n -t 30.000000 -s 4 -x 38.574713 -y 35.476728 -U -0.976323 -V 0.216318 -T 38.863099
n -t 30.000000 -s 5 -x 47.362856 -y 60.206182 -U -0.982126 -V 0.188226 -T 25.982289
n -t 30.000000 -s 7 -x 53.858748 -y 17.975877 -U -0.996133 -V 0.087856 -T 53.433586
n -t 30.000000 -s 3 -x 56.125241 -y 70.095365 -U -0.933994 -V -0.357288 -T 13.990511
n -t 30.000000 -s 8 -x 74.781891 -y 19.344064 -U -0.998032 -V 0.062711 -T 53.041309
n -t 30.000000 -s 6 -x 5.478952 -y 44.966471 -U 0.997818 -V -0.066026 -T 8.901820
n -t 31.000000 -s 6 -x 6.476770 -y 44.900444 -U 0.000000 -V 0.000000 -T 0.000000
n -t 31.000000 -s 0 -x 37.345835 -y 74.720953 -U 0.000000 -V 0.000000 -T 0.000000
n -t 31.000000 -s 4 -x 37.598390 -y 35.693046 -U 0.000000 -V 0.000000 -T 0.000000
n -t 31.000000 -s 5 -x 46.380730 -y 60.394408 -U 0.000000 -V 0.000000 -T 0.000000
n -t 31.000000 -s 7 -x 52.862615 -y 18.063733 -U 0.000000 -V 0.000000 -T 0.000000
n -t 31.000000 -s 3 -x 55.191247 -y 69.738077 -U 0.000000 -V 0.000000 -T 0.000000
n -t 31.000000 -s 8 -x 73.783860 -y 19.406774 -U 0.000000 -V 0.000000 -T 0.000000
n -t 31.000000 -s 6 -x 6.476770 -y 44.900444 -U 0.999989 -V 0.004608 -T 13.357299
n -t 31.000000 -s 0 -x 37.345835 -y 74.720953 -U -0.974804 -V -0.223062 -T 38.311112
n -t 31.000000 -s 4 -x 37.598390 -y 35.693046 -U -0.970931 -V 0.239359 -T 38.724054
n -t 31.000000 -s 5 -x 46.380730 -y 60.394408 -U -0.977102 -V 0.212772 -T 27.168923
n -t 31.000000 -s 7 -x 52.862615 -y 18.063733 -U -0.994267 -V 0.106928 -T 53.167433
n -t 31.000000 -s 3 -x 55.191247 -y 69.738077 -U -0.969708 -V -0.244268 -T 14.585957
n -t 31.000000 -s 8 -x 73.783860 -y 19.406774 -U -0.996777 -V 0.080223 -T 54.124379
n -t 31.000000 -s 6 -x 6.476770 -y 44.900444 -U 0.999989 -V 0.004608 -T 5.857299
n -t 31.000000 -s 0 -x 37.345835 -y 74.720953 -U 0.000000 -V 0.000000 -T 0.000000
n -t 31.000000 -s 4 -x 37.598390 -y 35.693046 -U 0.000000 -V 0.000000 -T 0.000000
n -t 31.000000 -s 5 -x 46.380730 -y 60.394408 -U 0.000000 -V 0.000000 -T 0.000000
n -t 31.000000 -s 7 -x 52.862615 -y 18.063733 -U 0.000000 -V 0.000000 -T 0.000000
n -t 31.000000 -s 3 -x 55.191247 -y 69.738077 -U 0.000000 -V 0.000000 -T 0.000000
n -t 31.000000 -s 8 -x 73.783860 -y 19.406774 -U 0.000000 -V 0.000000 -T 0.000000
n -t 32.000000 -s 6 -x 7.476759 -y 44.905053 -U 0.994032 -V 0.109089 -T 2.908229
n -t 32.000000 -s 0 -x 37.345835 -y 74.720953 -U 0.000000 -V 0.000000 -T 0.000000
n -t 32.000000 -s 4 -x 37.598390 -y 35.693046 -U 0.000000 -V 0.000000 -T 0.000000
n -t 32.000000 -s 5 -x 46.380730 -y 60.394408 -U 0.000000 -V 0.000000 -T 0.000000
n -t 32.000000 -s 7 -x 52.862615 -y 18.063733 -U 0.000000 -V 0.000000 -T 0.000000
n -t 32.000000 -s 3 -x 55.191247 -y 69.738077 -U 0.000000 -V 0.000000 -T 0.000000
n -t 32.000000 -s 8 -x 73.783860 -y 19.406774 -U 0.000000 -V 0.000000 -T 0.000000
n -t 33.000000 -s 6 -x 8.470791 -y 45.014142 -U 0.961268 -V 0.275614 -T 0.136812
n -t 33.000000 -s 0 -x 37.345835 -y 74.720953 -U 0.000000 -V 0.000000 -T 0.000000