n -t * -s 0  -x 52.600340000000003 -y 2.921808 -Z 0 -z 1  -v circle -c black
n -t * -s 1  -x 53.541370000000001 -y 30.90551 -Z 0 -z 1  -v circle -c black
n -t * -s 2  -x 88.308819999999997 -y 62.859290000000001 -Z 0 -z 1  -v circle -c black
n -t * -s 3  -x 2.1178080000000001 -y 74.109319999999997 -Z 0 -z 1  -v circle -c black
n -t * -s 4  -x 49.8078 -y 98.702770000000001 -Z 0 -z 1  -v circle -c black
n -t * -s 5  -x 27.450769999999999 -y 40.936210000000003 -Z 0 -z 1  -v circle -c black
n -t * -s 6  -x 96.692779999999999 -y 46.536999999999999 -Z 0 -z 1  -v circle -c black
n -t * -s 7  -x 48.71049 -y 91.551929999999999 -Z 0 -z 1  -v circle -c black
n -t * -s 8  -x 29.52169 -y 41.0687 -Z 0 -z 1  -v circle -c black
n -t * -s 9  -x 25.54222 -y 38.591290000000001 -Z 0 -z 1  -v circle -c black
n -t * -s 10  -x 94.799270000000007 -y 40.7027 -Z 0 -z 1  -v circle -c black
n -t * -s 11  -x 76.558670000000006 -y 38.480739999999997 -Z 0 -z 1  -v circle -c black
n -t * -s 12  -x 32.731659999999998 -y 50.098590000000002 -Z 0 -z 1  -v circle -c black
n -t * -s 13  -x 0.78107260000000001 -y 25.079229999999999 -Z 0 -z 1  -v circle -c black
n -t * -s 14  -x 38.531860000000002 -y 99.492080000000001 -Z 0 -z 1  -v circle -c black
n -t * -s 15  -x 90.583340000000007 -y 34.412970000000001 -Z 0 -z 1  -v circle -c black
n -t * -s 16  -x 57.565710000000003 -y 2.5174319999999999 -Z 0 -z 1  -v circle -c black
n -t * -s 17  -x 32.95449 -y 95.653880000000001 -Z 0 -z 1  -v circle -c black
n -t * -s 18  -x 62.247720000000001 -y 75.887630000000001 -Z 0 -z 1  -v circle -c black
n -t * -s 19  -x 63.888129999999997 -y 13.26984 -Z 0 -z 1  -v circle -c black
n -t * -s 20  -x 6.2450760000000001 -y 38.312640000000002 -Z 0 -z 2  -v circle -c black
V -t * -v 1.0a5 -a 0
W -t * -x 100 -y 100
A -t * -n 1 -p 0 -o 0x7fffffff -c 30 -a 1
A -t * -h 1 -m 1073741823 -s 0
n -t 0 -s 20 -S COLOR -c red -o black -i red -I black
n -t 0.000000 -s 20 -x 6.245076 -y 38.312640 -U 1.584143 -V -0.193957 -T 23.084263
n -t 32.000000 -s 20 -x 42.813860 -y 33.835280 -U 1.880629 -V 0.792145 -T 15.102238
n -t 53.000000 -s 20 -x 71.215570 -y 45.798450 -U -1.909170 -V -0.041321 -T 32.728892
n -t 97.000000 -s 20 -x 8.730555 -y 44.446060 -U 2.617424 -V 0.808661 -T 25.322888
