n -t * -s 0  -x 4.7844540000000002 -y 61.033320000000003 -Z 0 -z 1  -v circle -c black
n -t * -s 1  -x 72.733310000000003 -y 85.730410000000006 -Z 0 -z 1  -v circle -c black
n -t * -s 2  -x 23.856020000000001 -y 95.325940000000003 -Z 0 -z 1  -v circle -c black
n -t * -s 3  -x 69.810519999999997 -y 82.997050000000002 -Z 0 -z 1  -v circle -c black
n -t * -s 4  -x 13.915139999999999 -y 15.38856 -Z 0 -z 1  -v circle -c black
n -t * -s 5  -x 57.610959999999999 -y 35.59881 -Z 0 -z 1  -v circle -c black
n -t * -s 6  -x 47.897350000000003 -y 38.468870000000003 -Z 0 -z 1  -v circle -c black
n -t * -s 7  -x 6.4068059999999996 -y 45.367750000000001 -Z 0 -z 1  -v circle -c black
n -t * -s 8  -x 57.160359999999997 -y 4.6551070000000001 -Z 0 -z 1  -v circle -c black
n -t * -s 9  -x 59.814079999999997 -y 59.885300000000001 -Z 0 -z 1  -v circle -c black
n -t * -s 10  -x 93.34254 -y 53.354289999999999 -Z 0 -z 2  -v circle -c black
n -t * -s 11  -x 77.831209999999999 -y 32.968789999999998 -Z 0 -z 2  -v circle -c black
n -t * -s 12  -x 71.248099999999994 -y 70.957920000000001 -Z 0 -z 2  -v circle -c black
n -t * -s 13  -x 7.2429160000000001 -y 89.785300000000007 -Z 0 -z 2  -v circle -c black
n -t * -s 14  -x 93.726330000000004 -y 69.181139999999999 -Z 0 -z 2  -v circle -c black
n -t * -s 15  -x 33.139009999999999 -y 55.442860000000003 -Z 0 -z 2  -v circle -c black
V -t * -v 1.0a5 -a 0
W -t * -x 100 -y 100
A -t * -n 1 -p 0 -o 0x7fffffff -c 30 -a 1
A -t * -h 1 -m 1073741823 -s 0
n -t 0 -s 10 -S COLOR -c red -o black -i red -I black
n -t 0 -s 11 -S COLOR -c red -o black -i red -I black
n -t 0 -s 12 -S COLOR -c red -o black -i red -I black
n -t 0 -s 13 -S COLOR -c red -o black -i red -I black
n -t 0 -s 14 -S COLOR -c red -o black -i red -I black
n -t 0 -s 15 -S COLOR -c red -o black -i red -I black
n -t 0.000000 -s 10 -x 93.342540 -y 53.354290 -U -1.175968 -V 0.492658 -T 61.961019
n -t 0.000000 -s 11 -x 77.831210 -y 32.968790 -U -0.304237 -V 2.374306 -T 26.723586
n -t 0.000000 -s 12 -x 71.248100 -y 70.957920 -U 1.022665 -V -2.253947 -T 10.439151
n -t 0.000000 -s 13 -x 7.242916 -y 89.785300 -U 0.791916 -V -0.731958 -T 91.398911
n -t 0.000000 -s 14 -x 93.726330 -y 69.181140 -U -1.052352 -V -0.467707 -T 19.672902
n -t 0.000000 -s 15 -x 33.139010 -y 55.442860 -U 2.436254 -V -0.507769 -T 10.771958
n -t 0.000000 -s 1 -x 72.733310 -y 85.730410 -U -0.920523 -V -0.390689 -T 1.613442
n -t 0.000000 -s 6 -x 47.897350 -y 38.468870 -U -0.212622 -V 0.977135 -T 2.898121
n -t 0.000000 -s 3 -x 69.810520 -y 82.997050 -U 0.118567 -V -0.992946 -T 12.124656
n -t 0.000000 -s 9 -x 59.814080 -y 59.885300 -U -0.661583 -V -0.749872 -T 4.093387
n -t 0.000000 -s 2 -x 23.856020 -y 95.325940 -U -0.948633 -V -0.316379 -T 17.512679
n -t 0.000000 -s 5 -x 57.610960 -y 35.598810 -U 0.991647 -V -0.128982 -T 20.390574
n -t 0.000000 -s 7 -x 6.406806 -y 45.367750 -U 0.935746 -V 0.352674 -T 28.567789
n -t 0.000000 -s 0 -x 4.784454 -y 61.033320 -U 0.750684 -V 0.660661 -T 22.113964
n -t 0.000000 -s 8 -x 57.160360 -y 4.655107 -U 0.596384 -V 0.802699 -T 60.669272
n -t 0.000000 -s 8 -x 57.160360 -y 4.655107 -U 0.596384 -V 0.802699 -T 55.669272
n -t 0.000000 -s 5 -x 57.610960 -y 35.598810 -U 0.991647 -V -0.128982 -T 15.390574
n -t 0.000000 -s 3 -x 69.810520 -y 82.997050 -U 0.118567 -V -0.992946 -T 7.124656
n -t 0.000000 -s 2 -x 23.856020 -y 95.325940 -U -0.948633 -V -0.316379 -T 12.512679
n -t 0.000000 -s 6 -x 47.897350 -y 38.468870 -U -0.656137 -V 0.754642 -T 17.492775
n -t 1.000000 -s 8 -x 57.756744 -y 5.457806 -U 0.000000 -V 0.000000 -T 0.000000
n -t 1.000000 -s 5 -x 58.602607 -y 35.469828 -U 0.000000 -V 0.000000 -T 0.000000
n -t 1.000000 -s 1 -x 71.812787 -y 85.339721 -U 0.000000 -V 0.000000 -T 0.000000
n -t 1.000000 -s 3 -x 69.929087 -y 82.004104 -U 0.000000 -V 0.000000 -T 0.000000
n -t 1.000000 -s 9 -x 59.152497 -y 59.135428 -U 0.000000 -V 0.000000 -T 0.000000
n -t 1.000000 -s 2 -x 22.907387 -y 95.009561 -U 0.000000 -V 0.000000 -T 0.000000
n -t 1.000000 -s 0 -x 5.535138 -y 61.693981 -U 0.000000 -V 0.000000 -T 0.000000
n -t 1.000000 -s 6 -x 47.241213 -y 39.223512 -U 0.000000 -V 0.000000 -T 0.000000
n -t 1.000000 -s 7 -x 7.342552 -y 45.720424 -U 0.000000 -V 0.000000 -T 0.000000
n -t 1.000000 -s 6 -x 47.241213 -y 39.223512 -U 0.844635 -V 0.535342 -T 2.931664
n -t 1.000000 -s 3 -x 69.929087 -y 82.004104 -U 0.941015 -V 0.338364 -T 2.488460
n -t 1.000000 -s 2 -x 22.907387 -y 95.009561 -U -0.928322 -V -0.371778 -T 16.020906
n -t 1.000000 -s 9 -x 59.152497 -y 59.135428 -U 0.807915 -V 0.589298 -T 16.237180
n -t 1.000000 -s 5 -x 58.602607 -y 35.469828 -U 0.999978 -V -0.006697 -T 18.924791
n -t 1.000000 -s 1 -x 71.812787 -y 85.339721 -U 0.782013 -V -0.623262 -T 26.676258
n -t 1.000000 -s 7 -x 7.342552 -y 45.720424 -U 0.950647 -V 0.310275 -T 29.698419
n -t 1.000000 -s 0 -x 5.535138 -y 61.693981 -U 0.185830 -V 0.982582 -T 13.451524
n -t 1.000000 -s 8 -x 57.756744 -y 5.457806 -U 0.579521 -V 0.814957 -T 59.376302
n -t 1.000000 -s 8 -x 57.756744 -y 5.457806 -U 0.579521 -V 0.814957 -T 54.376302
n -t 1.000000 -s 5 -x 58.602607 -y 35.469828 -U 0.999978 -V -0.006697 -T 13.924791
n -t 1.000000 -s 3 -x 69.929087 -y 82.004104 -U 0.173397 -V -0.984852 -T 8.504700
n -t 1.000000 -s 2 -x 22.907387 -y 95.009561 -U -0.928322 -V -0.371778 -T 11.020906
n -t 1.000000 -s 1 -x 71.812787 -y 85.339721 -U 0.782013 -V -0.623262 -T 21.676258
n -t 1.000000 -s 6 -x 47.241213 -y 39.223512 -U -0.596143 -V 0.802879 -T 14.569059
n -t 2.000000 -s 8 -x 58.336265 -y 6.272763 -U 0.000000 -V 0.000000 -T 0.000000
n -t 2.000000 -s 5 -x 59.602584 -y 35.463131 -U 0.000000 -V 0.000000 -T 0.000000
n -t 2.000000 -s 3 -x 70.102484 -y 81.019252 -U 0.000000 -V 0.000000 -T 0.000000
n -t 2.000000 -s 9 -x 59.960412 -y 59.724727 -U 0.000000 -V 0.000000 -T 0.000000
n -t 2.000000 -s 2 -x 21.979065 -y 94.637783 -U 0.000000 -V 0.000000 -T 0.000000
n -t 2.000000 -s 0 -x 5.720968 -y 62.676563 -U 0.000000 -V 0.000000 -T 0.000000
n -t 2.000000 -s 1 -x 72.594801 -y 84.716459 -U 0.000000 -V 0.000000 -T 0.000000
n -t 2.000000 -s 6 -x 46.645071 -y 40.026390 -U 0.000000 -V 0.000000 -T 0.000000
n -t 2.000000 -s 7 -x 8.293199 -y 46.030698 -U 0.000000 -V 0.000000 -T 0.000000
n -t 2.000000 -s 2 -x 21.979065 -y 94.637783 -U -0.901435 -V -0.432914 -T 14.590419
n -t 2.000000 -s 3 -x 70.102484 -y 81.019252 -U 0.213948 -V -0.976845 -T 14.914572
n -t 2.000000 -s 6 -x 46.645071 -y 40.026390 -U 0.998898 -V 0.046929 -T 5.514660
n -t 2.000000 -s 5 -x 59.602584 -y 35.463131 -U 0.839153 -V 0.543896 -T 4.144676
n -t 2.000000 -s 9 -x 59.960412 -y 59.724727 -U -0.827478 -V -0.561499 -T 9.434404
n -t 2.000000 -s 1 -x 72.594801 -y 84.716459 -U 0.167015 -V -0.985954 -T 4.183050
n -t 2.000000 -s 7 -x 8.293199 -y 46.030698 -U 0.962327 -V 0.271896 -T 30.881739
n -t 2.000000 -s 0 -x 5.720968 -y 62.676563 -U 0.260670 -V 0.965428 -T 11.914597
n -t 2.000000 -s 8 -x 58.336265 -y 6.272763 -U 0.514890 -V 0.857256 -T 36.680569
n -t 2.000000 -s 5 -x 59.602584 -y 35.463131 -U 0.991915 -V 0.126903 -T 12.763769
n -t 2.000000 -s 3 -x 70.102484 -y 81.019252 -U 0.213948 -V -0.976845 -T 9.914572
n -t 2.000000 -s 2 -x 21.979065 -y 94.637783 -U -0.901435 -V -0.432914 -T 9.590419
n -t 2.000000 -s 6 -x 46.645071 -y 40.026390 -U -0.514189 -V 0.857677 -T 11.790623
n -t 3.000000 -s 5 -x 60.594500 -y 35.590034 -U 0.000000 -V 0.000000 -T 0.000000
n -t 3.000000 -s 8 -x 58.851156 -y 7.130019 -U 0.000000 -V 0.000000 -T 0.000000
n -t 3.000000 -s 3 -x 70.316432 -y 80.042407 -U 0.000000 -V 0.000000 -T 0.000000
n -t 3.000000 -s 1 -x 72.761815 -y 83.730505 -U 0.000000 -V 0.000000 -T 0.000000
n -t 3.000000 -s 2 -x 21.077630 -y 94.204869 -U 0.000000 -V 0.000000 -T 0.000000
n -t 3.000000 -s 0 -x 5.981638 -y 63.641991 -U 0.000000 -V 0.000000 -T 0.000000
n -t 3.000000 -s 6 -x 46.130882 -y 40.884067 -U 0.000000 -V 0.000000 -T 0.000000
n -t 3.000000 -s 9 -x 59.132935 -y 59.163228 -U 0.000000 -V 0.000000 -T 0.000000
n -t 3.000000 -s 7 -x 9.255526 -y 46.302594 -U 0.000000 -V 0.000000 -T 0.000000
n -t 3.000000 -s 2 -x 21.077630 -y 94.204869 -U -0.866038 -V -0.499978 -T 13.231477
n -t 3.000000 -s 9 -x 59.132935 -y 59.163228 -U -0.654808 -V -0.755796 -T 6.937955
n -t 3.000000 -s 6 -x 46.130882 -y 40.884067 -U -0.399643 -V 0.916671 -T 14.220464
n -t 3.000000 -s 3 -x 70.316432 -y 80.042407 -U 0.244728 -V -0.969592 -T 16.343298
n -t 3.000000 -s 1 -x 72.761815 -y 83.730505 -U 0.896600 -V -0.442842 -T 4.088028
n -t 3.000000 -s 5 -x 60.594500 -y 35.590034 -U 0.964015 -V 0.265847 -T 16.933341
n -t 3.000000 -s 0 -x 5.981638 -y 63.641991 -U 0.347771 -V 0.937579 -T 10.458099
n -t 3.000000 -s 8 -x 58.851156 -y 7.130019 -U 0.544457 -V 0.838789 -T 56.870390
n -t 3.000000 -s 7 -x 9.255526 -y 46.302594 -U 0.471299 -V 0.881973 -T 30.777223
n -t 3.000000 -s 8 -x 58.851156 -y 7.130019 -U 0.544457 -V 0.838789 -T 51.870390
n -t 3.000000 -s 5 -x 60.594500 -y 35.590034 -U 0.964015 -V 0.265847 -T 11.933341
n -t 3.000000 -s 3 -x 70.316432 -y 80.042407 -U 0.244728 -V -0.969592 -T 11.343298
n -t 3.000000 -s 2 -x 21.077630 -y 94.204869 -U -0.866038 -V -0.499978 -T 8.231477
n -t 3.000000 -s 1 -x 72.761815 -y 83.730505 -U 0.744836 -V -0.667248 -T 18.907895
n -t 3.000000 -s 9 -x 59.132935 -y 59.163228 -U -0.911412 -V -0.411496 -T 12.742971
n -t 3.000000 -s 6 -x 46.130882 -y 40.884067 -U -0.399643 -V 0.916671 -T 9.220464
n -t 4.000000 -s 8 -x 59.395613 -y 7.968808 -U 0.000000 -V 0.000000 -T 0.000000
n -t 4.000000 -s 5 -x 61.558515 -y 35.855881 -U 0.000000 -V 0.000000 -T 0.000000
n -t 4.000000 -s 3 -x 70.561160 -y 79.072815 -U 0.000000 -V 0.000000 -T 0.000000
n -t 4.000000 -s 2 -x 20.211592 -y 93.704891 -U 0.000000 -V 0.000000 -T 0.000000
n -t 4.000000 -s 0 -x 6.329409 -y 64.579571 -U 0.000000 -V 0.000000 -T 0.000000
n -t 4.000000 -s 7 -x 9.726825 -y 47.184568 -U 0.000000 -V 0.000000 -T 0.000000
n -t 4.000000 -s 1 -x 73.506651 -y 83.063257 -U 0.000000 -V 0.000000 -T 0.000000
n -t 4.000000 -s 9 -x 58.221523 -y 58.751732 -U 0.000000 -V 0.000000 -T 0.000000
n -t 4.000000 -s 6 -x 45.731239 -y 41.800738 -U 0.000000 -V 0.000000 -T 0.000000
n -t 4.000000 -s 1 -x 73.506651 -y 83.063257 -U 0.757340 -V -0.653021 -T 2.466707
n -t 4.000000 -s 9 -x 58.221523 -y 58.751732 -U -0.218446 -V -0.975849 -T 5.472106
n -t 4.000000 -s 6 -x 45.731239 -y 41.800738 -U -0.238160 -V 0.971226 -T 11.955039
n -t 4.000000 -s 2 -x 20.211592 -y 93.704891 -U -0.819753 -V -0.572717 -T 11.956046
n -t 4.000000 -s 5 -x 61.558515 -y 35.855881 -U 0.915637 -V 0.402005 -T 16.442914
n -t 4.000000 -s 3 -x 70.561160 -y 79.072815 -U 0.268640 -V -0.963241 -T 17.784424
n -t 4.000000 -s 0 -x 6.329409 -y 64.579571 -U 0.448382 -V 0.893842 -T 9.102009
n -t 4.000000 -s 8 -x 59.395613 -y 7.968808 -U 0.525411 -V 0.850849 -T 55.657504
n -t 4.000000 -s 7 -x 9.726825 -y 47.184568 -U 0.502176 -V 0.864766 -T 29.523329
n -t 4.000000 -s 8 -x 59.395613 -y 7.968808 -U 0.525411 -V 0.850849 -T 50.657504
n -t 4.000000 -s 5 -x 61.558515 -y 35.855881 -U 0.915637 -V 0.402005 -T 11.442914
n -t 4.000000 -s 3 -x 70.561160 -y 79.072815 -U 0.268640 -V -0.963241 -T 12.784424
n -t 4.000000 -s 2 -x 20.211592 -y 93.704891 -U -0.819753 -V -0.572717 -T 6.956046
n -t 4.000000 -s 1 -x 73.506651 -y 83.063257 -U 0.712812 -V -0.701355 -T 17.460724
n -t 4.000000 -s 9 -x 58.221523 -y 58.751732 -U -0.839983 -V -0.542613 -T 9.841183
n -t 4.000000 -s 6 -x 45.731239 -y 41.800738 -U -0.238160 -V 0.971226 -T 6.955039
n -t 5.000000 -s 8 -x 59.921023 -y 8.819657 -U 0.000000 -V 0.000000 -T 0.000000
n -t 5.000000 -s 5 -x 62.474152 -y 36.257886 -U 0.000000 -V 0.000000 -T 0.000000
n -t 5.000000 -s 3 -x 70.829800 -y 78.109574 -U 0.000000 -V 0.000000 -T 0.000000
n -t 5.000000 -s 2 -x 19.391839 -y 93.132175 -U 0.000000 -V 0.000000 -T 0.000000
n -t 5.000000 -s 0 -x 6.777791 -y 65.473413 -U 0.000000 -V 0.000000 -T 0.000000
n -t 5.000000 -s 7 -x 10.229000 -y 48.049334 -U 0.000000 -V 0.000000 -T 0.000000
n -t 5.000000 -s 1 -x 74.219463 -y 82.361902 -U 0.000000 -V 0.000000 -T 0.000000
n -t 5.000000 -s 9 -x 57.381540 -y 58.209120 -U 0.000000 -V 0.000000 -T 0.000000
n -t 5.000000 -s 6 -x 45.493079 -y 42.771964 -U 0.000000 -V 0.000000 -T 0.000000
n -t 5.000000 -s 1 -x 74.219463 -y 82.361902 -U 0.074564 -V -0.997216 -T 1.381007
n -t 5.000000 -s 6 -x 45.493079 -y 42.771964 -U -0.017052 -V 0.999855 -T 10.133522
n -t 5.000000 -s 2 -x 19.391839 -y 93.132175 -U -0.759842 -V -0.650108 -T 10.777693
n -t 5.000000 -s 9 -x 57.381540 -y 58.209120 -U 0.365155 -V -0.930947 -T 5.698614
n -t 5.000000 -s 5 -x 62.474152 -y 36.257886 -U -0.768947 -V 0.639312 -T 3.916698
n -t 5.000000 -s 3 -x 70.829800 -y 78.109574 -U 0.292275 -V -0.956334 -T 8.521979
n -t 5.000000 -s 0 -x 6.777791 -y 65.473413 -U 0.562131 -V 0.827048 -T 7.871316
n -t 5.000000 -s 8 -x 59.921023 -y 8.819657 -U 0.414137 -V 0.910214 -T 39.573826
n -t 5.000000 -s 7 -x 10.229000 -y 48.049334 -U 0.533978 -V 0.845498 -T 28.307607
n -t 5.000000 -s 3 -x 70.829800 -y 78.109574 -U 0.598017 -V -0.801483 -T 22.813422
n -t 5.000000 -s 8 -x 59.921023 -y 8.819657 -U 0.414137 -V 0.910214 -T 34.573826
n -t 5.000000 -s 2 -x 19.391839 -y 93.132175 -U -0.759842 -V -0.650108 -T 5.777693
n -t 5.000000 -s 1 -x 74.219463 -y 82.361902 -U 0.676217 -V -0.736703 -T 16.065891
n -t 5.000000 -s 9 -x 57.381540 -y 58.209120 -U -0.685157 -V -0.728395 -T 7.283279
n -t 5.000000 -s 6 -x 45.493079 -y 42.771964 -U -0.017052 -V 0.999855 -T 5.133522
n -t 6.000000 -s 3 -x 71.427817 -y 77.308091 -U 0.000000 -V 0.000000 -T 0.000000
n -t 6.000000 -s 8 -x 60.335161 -y 9.729871 -U 0.000000 -V 0.000000 -T 0.000000
n -t 6.000000 -s 2 -x 18.631997 -y 92.482067 -U 0.000000 -V 0.000000 -T 0.000000
n -t 6.000000 -s 0 -x 7.339922 -y 66.300461 -U 0.000000 -V 0.000000 -T 0.000000
n -t 6.000000 -s 7 -x 10.762978 -y 48.894832 -U 0.000000 -V 0.000000 -T 0.000000
n -t 6.000000 -s 1 -x 74.895680 -y 81.625199 -U 0.000000 -V 0.000000 -T 0.000000
n -t 6.000000 -s 6 -x 45.476027 -y 43.771819 -U 0.000000 -V 0.000000 -T 0.000000
n -t 6.000000 -s 9 -x 56.696383 -y 57.480724 -U 0.000000 -V 0.000000 -T 0.000000
n -t 6.000000 -s 5 -x 61.705205 -y 36.897198 -U 0.000000 -V 0.000000 -T 0.000000
n -t 6.000000 -s 5 -x 61.705205 -y 36.897198 -U 0.141151 -V 0.989988 -T 1.370633
n -t 6.000000 -s 1 -x 74.895680 -y 81.625199 -U -0.826273 -V -0.563270 -T 1.967383
n -t 6.000000 -s 6 -x 45.476027 -y 43.771819 -U 0.255638 -V 0.966772 -T 8.920843
n -t 6.000000 -s 2 -x 18.631997 -y 92.482067 -U -0.683508 -V -0.729943 -T 9.711054
n -t 6.000000 -s 3 -x 71.427817 -y 77.308091 -U 0.103985 -V -0.994579 -T 6.893087
n -t 6.000000 -s 9 -x 56.696383 -y 57.480724 -U 0.715158 -V -0.698963 -T 7.274321
n -t 6.000000 -s 0 -x 7.339922 -y 66.300461 -U 0.684957 -V 0.728584 -T 6.795310
n -t 6.000000 -s 8 -x 60.335161 -y 9.729871 -U 0.385705 -V 0.922622 -T 40.628507
n -t 6.000000 -s 7 -x 10.762978 -y 48.894832 -U 0.566614 -V 0.823983 -T 27.132333
n -t 6.000000 -s 3 -x 71.427817 -y 77.308091 -U 0.488071 -V -0.872804 -T 15.956376
n -t 6.000000 -s 3 -x 71.427817 -y 77.308091 -U 0.577640 -V -0.816291 -T 20.723477
n -t 6.000000 -s 8 -x 60.335161 -y 9.729871 -U 0.385705 -V 0.922622 -T 35.628507
n -t 6.000000 -s 2 -x 18.631997 -y 92.482067 -U -0.683508 -V -0.729943 -T 4.711054
n -t 6.000000 -s 0 -x 7.339922 -y 66.300461 -U 0.000000 -V 0.000000 -T 0.000000
n -t 6.000000 -s 7 -x 10.762978 -y 48.894832 -U 0.000000 -V 0.000000 -T 0.000000
n -t 6.000000 -s 1 -x 74.895680 -y 81.625199 -U 0.634422 -V -0.772987 -T 14.729053
n -t 6.000000 -s 9 -x 56.696383 -y 57.480724 -U -0.344982 -V -0.938609 -T 5.417036
n -t 6.000000 -s 6 -x 45.476027 -y 43.771819 -U 0.255638 -V 0.966772 -T 3.920843
n -t 6.000000 -s 5 -x 61.705205 -y 36.897198 -U 0.000000 -V 0.000000 -T 0.000000
n -t 6.000000 -s 9 -x 56.696383 -y 57.480724 -U 0.000000 -V 0.000000 -T 0.000000
n -t 7.000000 -s 3 -x 72.005457 -y 76.491800 -U 0.000000 -V 0.000000 -T 0.000000
n -t 7.000000 -s 8 -x 60.720866 -y 10.652493 -U 0.000000 -V 0.000000 -T 0.000000
n -t 7.000000 -s 2 -x 17.948489 -y 91.752123 -U 0.000000 -V 0.000000 -T 0.000000
n -t 7.000000 -s 0 -x 7.339922 -y 66.300461 -U 0.000000 -V 0.000000 -T 0.000000
n -t 7.000000 -s 7 -x 10.762978 -y 48.894832 -U 0.000000 -V 0.000000 -T 0.000000
n -t 7.000000 -s 1 -x 75.530102 -y 80.852212 -U 0.000000 -V 0.000000 -T 0.000000
n -t 7.000000 -s 5 -x 61.705205 -y 36.897198 -U 0.000000 -V 0.000000 -T 0.000000
n -t 7.000000 -s 6 -x 45.731665 -y 44.738591 -U 0.000000 -V 0.000000 -T 0.000000
n -t 7.000000 -s 9 -x 56.696383 -y 57.480724 -U 0.000000 -V 0.000000 -T 0.000000
n -t 7.000000 -s 5 -x 61.705205 -y 36.897198 -U 0.141151 -V 0.989988 -T 1.370633
n -t 7.000000 -s 6 -x 45.731665 -y 44.738591 -U 0.255638 -V 0.966772 -T 7.920843
n -t 7.000000 -s 2 -x 17.948489 -y 91.752123 -U -0.683508 -V -0.729943 -T 8.711054
n -t 7.000000 -s 3 -x 72.005457 -y 76.491800 -U -0.183742 -V -0.982974 -T 5.642842
n -t 7.000000 -s 1 -x 75.530102 -y 80.852212 -U -0.971858 -V -0.235569 -T 3.408286
n -t 7.000000 -s 9 -x 56.696383 -y 57.480724 -U 0.715158 -V -0.698963 -T 7.274321
n -t 7.000000 -s 0 -x 7.339922 -y 66.300461 -U 0.684957 -V 0.728584 -T 6.795310
n -t 7.000000 -s 7 -x 10.762978 -y 48.894832 -U 0.566614 -V 0.823983 -T 27.132333
n -t 7.000000 -s 3 -x 72.005457 -y 76.491800 -U 0.431433 -V -0.902145 -T 13.986488
n -t 7.000000 -s 3 -x 72.005457 -y 76.491800 -U 0.554096 -V -0.832453 -T 18.651682
n -t 7.000000 -s 2 -x 17.948489 -y 91.752123 -U -0.588575 -V -0.808443 -T 3.770605
n -t 7.000000 -s 0 -x 7.339922 -y 66.300461 -U 0.000000 -V 0.000000 -T 0.000000
n -t 7.000000 -s 7 -x 10.762978 -y 48.894832 -U 0.000000 -V 0.000000 -T 0.000000
n -t 7.000000 -s 1 -x 75.530102 -y 80.852212 -U 0.586777 -V -0.809749 -T 13.456369
n -t 7.000000 -s 9 -x 56.696383 -y 57.480724 -U -0.316944 -V -0.948444 -T 5.896235
n -t 7.000000 -s 6 -x 45.731665 -y 44.738591 -U 0.529354 -V 0.848401 -T 3.427483
n -t 7.000000 -s 5 -x 61.705205 -y 36.897198 -U 0.000000 -V 0.000000 -T 0.000000
n -t 7.000000 -s 9 -x 56.696383 -y 57.480724 -U 0.000000 -V 0.000000 -T 0.000000
n -t 8.000000 -s 3 -x 72.559554 -y 75.659347 -U 0.000000 -V 0.000000 -T 0.000000
n -t 8.000000 -s 2 -x 17.359914 -y 90.943681 -U 0.000000 -V 0.000000 -T 0.000000
n -t 8.000000 -s 0 -x 7.339922 -y 66.300461 -U 0.000000 -V 0.000000 -T 0.000000
n -t 8.000000 -s 7 -x 10.762978 -y 48.894832 -U 0.000000 -V 0.000000 -T 0.000000
n -t 8.000000 -s 1 -x 76.116878 -y 80.042463 -U 0.000000 -V 0.000000 -T 0.000000
n -t 8.000000 -s 5 -x 61.705205 -y 36.897198 -U 0.000000 -V 0.000000 -T 0.000000
n -t 8.000000 -s 6 -x 46.261019 -y 45.586992 -U 0.000000 -V 0.000000 -T 0.000000
n -t 8.000000 -s 9 -x 56.696383 -y 57.480724 -U 0.000000 -V 0.000000 -T 0.000000
n -t 8.000000 -s 5 -x 61.705205 -y 36.897198 -U 0.141151 -V 0.989988 -T 1.370633
n -t 8.000000 -s 6 -x 46.261019 -y 45.586992 -U 0.214517 -V 0.976720 -T 6.971548
n -t 8.000000 -s 2 -x 17.359914 -y 90.943681 -U -0.695047 -V -0.718964 -T 7.719620
n -t 8.000000 -s 3 -x 72.559554 -y 75.659347 -U -0.548162 -V -0.836372 -T 5.047583
n -t 8.000000 -s 9 -x 56.696383 -y 57.480724 -U 0.715158 -V -0.698963 -T 7.274321
n -t 8.000000 -s 1 -x 76.116878 -y 80.042463 -U 0.532654 -V -0.846333 -T 17.254417
n -t 8.000000 -s 0 -x 7.339922 -y 66.300461 -U 0.684957 -V 0.728584 -T 6.795310
n -t 8.000000 -s 7 -x 10.762978 -y 48.894832 -U 0.566614 -V 0.823983 -T 27.132333
n -t 8.000000 -s 3 -x 72.559554 -y 75.659347 -U 0.356153 -V -0.934428 -T 12.085181
n -t 8.000000 -s 3 -x 72.559554 -y 75.659347 -U 0.526595 -V -0.850116 -T 16.601507
n -t 8.000000 -s 2 -x 17.359914 -y 90.943681 -U -0.474574 -V -0.880216 -T 2.968555
n -t 8.000000 -s 0 -x 7.339922 -y 66.300461 -U 0.000000 -V 0.000000 -T 0.000000
n -t 8.000000 -s 7 -x 10.762978 -y 48.894832 -U 0.000000 -V 0.000000 -T 0.000000
n -t 8.000000 -s 1 -x 76.116878 -y 80.042463 -U 0.532654 -V -0.846333 -T 12.254417
n -t 8.000000 -s 9 -x 56.696383 -y 57.480724 -U -0.292919 -V -0.956137 -T 6.379856
n -t 8.000000 -s 9 -x 56.696383 -y 57.480724 -U -0.554762 -V -0.832009 -T 2.331676
n -t 8.000000 -s 5 -x 61.705205 -y 36.897198 -U 0.000000 -V 0.000000 -T 0.000000
n -t 8.000000 -s 6 -x 46.261019 -y 45.586992 -U 0.000000 -V 0.000000 -T 0.000000
n -t 9.000000 -s 3 -x 73.086148 -y 74.809231 -U 0.000000 -V 0.000000 -T 0.000000
n -t 9.000000 -s 2 -x 16.885340 -y 90.063465 -U 0.000000 -V 0.000000 -T 0.000000
n -t 9.000000 -s 0 -x 7.339922 -y 66.300461 -U 0.000000 -V 0.000000 -T 0.000000
n -t 9.000000 -s 7 -x 10.762978 -y 48.894832 -U 0.000000 -V 0.000000 -T 0.000000
n -t 9.000000 -s 1 -x 76.649533 -y 79.196130 -U 0.000000 -V 0.000000 -T 0.000000
n -t 9.000000 -s 5 -x 61.705205 -y 36.897198 -U 0.000000 -V 0.000000 -T 0.000000
n -t 9.000000 -s 6 -x 46.261019 -y 45.586992 -U 0.000000 -V 0.000000 -T 0.000000
n -t 9.000000 -s 9 -x 56.141620 -y 56.648716 -U 0.000000 -V 0.000000 -T 0.000000
n -t 9.000000 -s 9 -x 56.141620 -y 56.648716 -U -0.183197 -V -0.983076 -T 5.875210
n -t 9.000000 -s 2 -x 16.885340 -y 90.063465 -U -0.723259 -V -0.690577 -T 6.762341
n -t 9.000000 -s 3 -x 73.086148 -y 74.809231 -U -0.840694 -V -0.541511 -T 5.316390
n -t 9.000000 -s 1 -x 76.649533 -y 79.196130 -U 0.471520 -V -0.881855 -T 16.130033
n -t 9.000000 -s 5 -x 61.705205 -y 36.897198 -U -0.222933 -V 0.974834 -T 3.383360
n -t 9.000000 -s 0 -x 7.339922 -y 66.300461 -U 0.684957 -V 0.728584 -T 6.795310
n -t 9.000000 -s 6 -x 46.261019 -y 45.586992 -U 0.956899 -V 0.290420 -T 30.130712
n -t 9.000000 -s 8 -x 60.720866 -y 10.652493 -U 0.442209 -V 0.896912 -T 44.619661
n -t 9.000000 -s 7 -x 10.762978 -y 48.894832 -U 0.566614 -V 0.823983 -T 27.132333
n -t 9.000000 -s 3 -x 73.086148 -y 74.809231 -U 0.252966 -V -0.967475 -T 10.284452
n -t 9.000000 -s 3 -x 73.086148 -y 74.809231 -U 0.494073 -V -0.869420 -T 14.577433
n -t 9.000000 -s 5 -x 61.705205 -y 36.897198 -U 0.608917 -V 0.793234 -T 16.986381
n -t 9.000000 -s 8 -x 60.720866 -y 10.652493 -U 0.442209 -V 0.896912 -T 39.619661
n -t 9.000000 -s 2 -x 16.885340 -y 90.063465 -U -0.343980 -V -0.938977 -T 2.311989
n -t 9.000000 -s 0 -x 7.339922 -y 66.300461 -U 0.000000 -V 0.000000 -T 0.000000
n -t 9.000000 -s 7 -x 10.762978 -y 48.894832 -U 0.000000 -V 0.000000 -T 0.000000
n -t 9.000000 -s 1 -x 76.649533 -y 79.196130 -U 0.471520 -V -0.881855 -T 11.130033
n -t 9.000000 -s 9 -x 56.141620 -y 56.648716 -U -0.183197 -V -0.983076 -T 0.875210
n -t 10.000000 -s 3 -x 73.580221 -y 73.939810 -U 0.000000 -V 0.000000 -T 0.000000
n -t 10.000000 -s 5 -x 62.314122 -y 37.690432 -U 0.000000 -V 0.000000 -T 0.000000
n -t 10.000000 -s 6 -x 47.217919 -y 45.877412 -U 0.000000 -V 0.000000 -T 0.000000
n -t 10.000000 -s 8 -x 61.163075 -y 11.549405 -U 0.000000 -V 0.000000 -T 0.000000
n -t 10.000000 -s 2 -x 16.541361 -y 89.124488 -U 0.000000 -V 0.000000 -T 0.000000
n -t 10.000000 -s 0 -x 7.339922 -y 66.300461 -U 0.000000 -V 0.000000 -T 0.000000
n -t 10.000000 -s 7 -x 10.762978 -y 48.894832 -U 0.000000 -V 0.000000 -T 0.000000
n -t 10.000000 -s 1 -x 77.121053 -y 78.314275 -U 0.000000 -V 0.000000 -T 0.000000
n -t 10.000000 -s 9 -x 55.981284 -y 55.788317 -U 0.000000 -V 0.000000 -T 0.000000
n -t 10.000000 -s 9 -x 55.981284 -y 55.788317 -U -0.183197 -V -0.983076 -T 5.000000
n -t 10.000000 -s 2 -x 16.541361 -y 89.124488 -U -0.773064 -V -0.634328 -T 5.881719
n -t 10.000000 -s 3 -x 73.580221 -y 73.939810 -U 0.364694 -V -0.931128 -T 3.314069
n -t 10.000000 -s 1 -x 77.121053 -y 78.314275 -U 0.403031 -V -0.915186 -T 15.090052
n -t 10.000000 -s 0 -x 7.339922 -y 66.300461 -U 0.684957 -V 0.728584 -T 6.795310
n -t 10.000000 -s 5 -x 62.314122 -y 37.690432 -U 0.990449 -V -0.137882 -T 6.959789
n -t 10.000000 -s 6 -x 47.217919 -y 45.877412 -U 0.930717 -V 0.365740 -T 29.623317
n -t 10.000000 -s 8 -x 61.163075 -y 11.549405 -U 0.482533 -V 0.875878 -T 42.093837
n -t 10.000000 -s 7 -x 10.762978 -y 48.894832 -U 0.566614 -V 0.823983 -T 27.132333
n -t 10.000000 -s 3 -x 73.580221 -y 73.939810 -U 0.118161 -V -0.992994 -T 10.228546
n -t 10.000000 -s 3 -x 73.580221 -y 73.939810 -U 0.069983 -V -0.997548 -T 12.270300
n -t 10.000000 -s 8 -x 61.163075 -y 11.549405 -U 0.482533 -V 0.875878 -T 37.093837
n -t 10.000000 -s 2 -x 16.541361 -y 89.124488 -U -0.202832 -V -0.979214 -T 1.800122
n -t 10.000000 -s 0 -x 7.339922 -y 66.300461 -U 0.000000 -V 0.000000 -T 0.000000
n -t 10.000000 -s 7 -x 10.762978 -y 48.894832 -U 0.000000 -V 0.000000 -T 0.000000
n -t 10.000000 -s 1 -x 77.121053 -y 78.314275 -U 0.403031 -V -0.915186 -T 10.090052
n -t 10.000000 -s 9 -x 55.981284 -y 55.788317 -U 0.269924 -V -0.962882 -T 0.632209
n -t 10.000000 -s 5 -x 62.314122 -y 37.690432 -U 0.000000 -V 0.000000 -T 0.000000
n -t 11.000000 -s 3 -x 73.650204 -y 72.942262 -U 0.000000 -V 0.000000 -T 0.000000
n -t 11.000000 -s 6 -x 48.148636 -y 46.243152 -U 0.000000 -V 0.000000 -T 0.000000
n -t 11.000000 -s 8 -x 61.645609 -y 12.425283 -U 0.000000 -V 0.000000 -T 0.000000
n -t 11.000000 -s 2 -x 16.338529 -y 88.145274 -U 0.000000 -V 0.000000 -T 0.000000
n -t 11.000000 -s 0 -x 7.339922 -y 66.300461 -U 0.000000 -V 0.000000 -T 0.000000
n -t 11.000000 -s 7 -x 10.762978 -y 48.894832 -U 0.000000 -V 0.000000 -T 0.000000
n -t 11.000000 -s 1 -x 77.524084 -y 77.399089 -U 0.000000 -V 0.000000 -T 0.000000
n -t 11.000000 -s 9 -x 56.151933 -y 55.179575 -U 0.000000 -V 0.000000 -T 0.000000
n -t 11.000000 -s 5 -x 62.314122 -y 37.690432 -U 0.000000 -V 0.000000 -T 0.000000
n -t 11.000000 -s 3 -x 73.650204 -y 72.942262 -U 0.945962 -V 0.324277 -T 0.882065
n -t 11.000000 -s 9 -x 56.151933 -y 55.179575 -U -0.244649 -V -0.969612 -T 4.441611
n -t 11.000000 -s 2 -x 16.338529 -y 88.145274 -U -0.844779 -V -0.535115 -T 5.142307
n -t 11.000000 -s 1 -x 77.524084 -y 77.399089 -U 0.327162 -V -0.944968 -T 14.140930
n -t 11.000000 -s 0 -x 7.339922 -y 66.300461 -U 0.684957 -V 0.728584 -T 6.795310
n -t 11.000000 -s 5 -x 62.314122 -y 37.690432 -U 0.990449 -V -0.137882 -T 6.959789
n -t 11.000000 -s 6 -x 48.148636 -y 46.243152 -U 0.898820 -V 0.438319 -T 29.300616
n -t 11.000000 -s 8 -x 61.645609 -y 12.425283 -U 0.501280 -V 0.865285 -T 40.452958
n -t 11.000000 -s 7 -x 10.762978 -y 48.894832 -U 0.566614 -V 0.823983 -T 27.132333
n -t 11.000000 -s 3 -x 73.650204 -y 72.942262 -U 0.122057 -V -0.992523 -T 6.836148
n -t 11.000000 -s 3 -x 73.650204 -y 72.942262 -U 0.060110 -V -0.998192 -T 8.881203
n -t 11.000000 -s 8 -x 61.645609 -y 12.425283 -U 0.501280 -V 0.865285 -T 35.452958
n -t 11.000000 -s 2 -x 16.338529 -y 88.145274 -U -0.059868 -V -0.998206 -T 1.423037
n -t 11.000000 -s 0 -x 7.339922 -y 66.300461 -U 0.000000 -V 0.000000 -T 0.000000
n -t 11.000000 -s 7 -x 10.762978 -y 48.894832 -U 0.000000 -V 0.000000 -T 0.000000
n -t 11.000000 -s 1 -x 77.524084 -y 77.399089 -U 0.327162 -V -0.944968 -T 9.140930
n -t 11.000000 -s 9 -x 56.151933 -y 55.179575 -U 0.527217 -V -0.849731 -T 1.127098
n -t 11.000000 -s 5 -x 62.314122 -y 37.690432 -U 0.000000 -V 0.000000 -T 0.000000
n -t 12.000000 -s 3 -x 73.710314 -y 71.944070 -U 0.000000 -V 0.000000 -T 0.000000
n -t 12.000000 -s 6 -x 49.047455 -y 46.681471 -U 0.000000 -V 0.000000 -T 0.000000
n -t 12.000000 -s 8 -x 62.146888 -y 13.290568 -U 0.000000 -V 0.000000 -T 0.000000
n -t 12.000000 -s 2 -x 16.278661 -y 87.147068 -U 0.000000 -V 0.000000 -T 0.000000
n -t 12.000000 -s 0 -x 7.339922 -y 66.300461 -U 0.000000 -V 0.000000 -T 0.000000
n -t 12.000000 -s 7 -x 10.762978 -y 48.894832 -U 0.000000 -V 0.000000 -T 0.000000
n -t 12.000000 -s 1 -x 77.851246 -y 76.454121 -U 0.000000 -V 0.000000 -T 0.000000
n -t 12.000000 -s 9 -x 56.679149 -y 54.329844 -U 0.000000 -V 0.000000 -T 0.000000
n -t 12.000000 -s 5 -x 62.314122 -y 37.690432 -U 0.000000 -V 0.000000 -T 0.000000
n -t 12.000000 -s 9 -x 56.679149 -y 54.329844 -U -0.423020 -V -0.906120 -T 3.815065
n -t 12.000000 -s 2 -x 16.278661 -y 87.147068 -U -0.925481 -V -0.378794 -T 4.629211
n -t 12.000000 -s 3 -x 73.710314 -y 71.944070 -U 0.127434 -V 0.991847 -T 3.688604
n -t 12.000000 -s 1 -x 77.851246 -y 76.454121 -U 0.412619 -V -0.910904 -T 3.343713
n -t 12.000000 -s 0 -x 7.339922 -y 66.300461 -U 0.684957 -V 0.728584 -T 6.795310
n -t 12.000000 -s 5 -x 62.314122 -y 37.690432 -U 0.990449 -V -0.137882 -T 6.959789
n -t 12.000000 -s 6 -x 49.047455 -y 46.681471 -U 0.862010 -V 0.506891 -T 29.156165
n -t 12.000000 -s 8 -x 62.146888 -y 13.290568 -U 0.501280 -V 0.865285 -T 39.452958
n -t 12.000000 -s 7 -x 10.762978 -y 48.894832 -U 0.566614 -V 0.823983 -T 27.132333
n -t 12.000000 -s 1 -x 77.851246 -y 76.454121 -U 0.080013 -V -0.996794 -T 12.243221
n -t 12.000000 -s 3 -x 73.710314 -y 71.944070 -U 0.136455 -V -0.990646 -T 3.444758
n -t 12.000000 -s 3 -x 73.710314 -y 71.944070 -U 0.044792 -V -0.998996 -T 5.494137
n -t 12.000000 -s 8 -x 62.146888 -y 13.290568 -U 0.501280 -V 0.865285 -T 34.452958
n -t 12.000000 -s 2 -x 16.278661 -y 87.147068 -U 0.075816 -V -0.997122 -T 1.163007
n -t 12.000000 -s 0 -x 7.339922 -y 66.300461 -U 0.000000 -V 0.000000 -T 0.000000
n -t 12.000000 -s 7 -x 10.762978 -y 48.894832 -U 0.000000 -V 0.000000 -T 0.000000
n -t 12.000000 -s 9 -x 56.679149 -y 54.329844 -U 0.527217 -V -0.849731 -T 0.127098
n -t 12.000000 -s 5 -x 62.314122 -y 37.690432 -U 0.000000 -V 0.000000 -T 0.000000
n -t 13.000000 -s 1 -x 77.931259 -y 75.457327 -U 0.000000 -V 0.000000 -T 0.000000
n -t 13.000000 -s 3 -x 73.755106 -y 70.945074 -U 0.000000 -V 0.000000 -T 0.000000
n -t 13.000000 -s 6 -x 49.909466 -y 47.188362 -U 0.000000 -V 0.000000 -T 0.000000
n -t 13.000000 -s 8 -x 62.648168 -y 14.155853 -U 0.000000 -V 0.000000 -T 0.000000
n -t 13.000000 -s 2 -x 16.354477 -y 86.149946 -U 0.000000 -V 0.000000 -T 0.000000
n -t 13.000000 -s 0 -x 7.339922 -y 66.300461 -U 0.000000 -V 0.000000 -T 0.000000
n -t 13.000000 -s 7 -x 10.762978 -y 48.894832 -U 0.000000 -V 0.000000 -T 0.000000
n -t 13.000000 -s 9 -x 56.746157 -y 54.221845 -U 0.000000 -V 0.000000 -T 0.000000
n -t 13.000000 -s 5 -x 62.314122 -y 37.690432 -U 0.000000 -V 0.000000 -T 0.000000
n -t 13.000000 -s 9 -x 56.746157 -y 54.221845 -U -0.448580 -V -0.893743 -T 3.747062
n -t 13.000000 -s 2 -x 16.354477 -y 86.149946 -U -0.985283 -V -0.170930 -T 4.425187
n -t 13.000000 -s 1 -x 77.931259 -y 75.457327 -U 0.079230 -V -0.996856 -T 1.561258
n -t 13.000000 -s 3 -x 73.755106 -y 70.945074 -U 0.017019 -V -0.999855 -T 7.111331
n -t 13.000000 -s 0 -x 7.339922 -y 66.300461 -U 0.684957 -V 0.728584 -T 6.795310
n -t 13.000000 -s 5 -x 62.314122 -y 37.690432 -U 0.990449 -V -0.137882 -T 6.959789