n -t * -s 0  -x 25.090920000000001 -y 9.6722780000000004 -Z 0 -z 1  -v circle -c black
n -t * -s 1  -x 68.950289999999995 -y 17.14479 -Z 0 -z 1  -v circle -c black
n -t * -s 2  -x 42.305480000000003 -y 1.7314620000000001 -Z 0 -z 1  -v circle -c black
n -t * -s 3  -x 49.932389999999998 -y 93.016620000000003 -Z 0 -z 1  -v circle -c black
n -t * -s 4  -x 24.5459 -y 15.95356 -Z 0 -z 1  -v circle -c black
n -t * -s 5  -x 47.42436 -y 93.834959999999995 -Z 0 -z 1  -v circle -c black
n -t * -s 6  -x 82.757639999999995 -y 29.193760000000001 -Z 0 -z 1  -v circle -c black
n -t * -s 7  -x 67.243489999999994 -y 39.713000000000001 -Z 0 -z 1  -v circle -c black
n -t * -s 8  -x 21.551300000000001 -y 86.753969999999995 -Z 0 -z 1  -v circle -c black
n -t * -s 9  -x 40.246119999999998 -y 34.552399999999999 -Z 0 -z 1  -v circle -c black
n -t * -s 10  -x 28.19829 -y 53.187759999999997 -Z 0 -z 2  -v circle -c black
n -t * -s 11  -x 53.902419999999999 -y 99.511529999999993 -Z 0 -z 2  -v circle -c black
n -t * -s 12  -x 64.98424 -y 41.445610000000002 -Z 0 -z 2  -v circle -c black
V -t * -v 1.0a5 -a 0
W -t * -x 100 -y 100
A -t * -n 1 -p 0 -o 0x7fffffff -c 30 -a 1
A -t * -h 1 -m 1073741823 -s 0
n -t 0 -s 10 -S COLOR -c red -o black -i red -I black
n -t 0 -s 11 -S COLOR -c red -o black -i red -I black
n -t 0 -s 12 -S COLOR -c red -o black -i red -I black
n -t 0.000000 -s 10 -x 28.198290 -y 53.187760 -U -2.772663 -V -0.856110 -T 7.354753
n -t 0.000000 -s 11 -x 53.902420 -y 99.511530 -U -0.974267 -V -0.647914 -T 39.755688
n -t 0.000000 -s 12 -x 64.984240 -y 41.445610 -U -0.974247 -V 0.703590 -T 38.840571
n -t 10.000000 -s 10 -x 7.806043 -y 46.891280 -U 1.532714 -V 1.203889 -T 18.396548
n -t 35.000000 -s 10 -x 36.002690 -y 69.038690 -U -0.621007 -V -1.531189 -T 24.951896
n -t 52.000000 -s 12 -x 27.143930 -y 68.773440 -U 1.368350 -V -1.522544 -T 43.520208
n -t 53.000000 -s 11 -x 15.169750 -y 73.753280 -U 1.234085 -V -0.084588 -T 38.796949
n -t 68.000000 -s 10 -x 20.507380 -y 30.832610 -U 0.275947 -V 1.933666 -T 29.664811
