n -t * -s 0  -x 65.659019999999998 -y 24.045750000000002 -Z 0 -z 1  -v circle -c black
n -t * -s 1  -x 17.259429999999998 -y 85.439880000000002 -Z 0 -z 1  -v circle -c black
n -t * -s 2  -x 60.053150000000002 -y 39.613660000000003 -Z 0 -z 1  -v circle -c black
n -t * -s 3  -x 97.475030000000004 -y 43.233879999999999 -Z 0 -z 1  -v circle -c black
n -t * -s 4  -x 8.2520500000000006 -y 55.507379999999998 -Z 0 -z 1  -v circle -c black
n -t * -s 5  -x 18.108350000000002 -y 96.773430000000005 -Z 0 -z 1  -v circle -c black
n -t * -s 6  -x 23.18289 -y 14.66574 -Z 0 -z 1  -v circle -c black
n -t * -s 7  -x 36.595289999999999 -y 88.842950000000002 -Z 0 -z 1  -v circle -c black
n -t * -s 8  -x 49.049219999999998 -y 74.023169999999993 -Z 0 -z 1  -v circle -c black
n -t * -s 9  -x 74.549270000000007 -y 65.022760000000005 -Z 0 -z 1  -v circle -c black
n -t * -s 10  -x 6.383877 -y 74.975129999999993 -Z 0 -z 1  -v circle -c black
n -t * -s 11  -x 88.574849999999998 -y 62.21463 -Z 0 -z 1  -v circle -c black
n -t * -s 12  -x 9.93581 -y 25.774329999999999 -Z 0 -z 1  -v circle -c black
n -t * -s 13  -x 88.39873 -y 55.18262 -Z 0 -z 1  -v circle -c black
n -t * -s 14  -x 44.079790000000003 -y 62.92165 -Z 0 -z 1  -v circle -c black
n -t * -s 15  -x 27.119389999999999 -y 18.103120000000001 -Z 0 -z 1  -v circle -c black
n -t * -s 16  -x 51.31118 -y 61.631610000000002 -Z 0 -z 1  -v circle -c black
n -t * -s 17  -x 9.6620039999999996 -y 43.177109999999999 -Z 0 -z 1  -v circle -c black
n -t * -s 18  -x 79.904120000000006 -y 66.131680000000003 -Z 0 -z 1  -v circle -c black
n -t * -s 19  -x 86.306479999999993 -y 70.713049999999996 -Z 0 -z 1  -v circle -c black
n -t * -s 20  -x 5.4229209999999997 -y 59.805810000000001 -Z 0 -z 2  -v circle -c black
n -t * -s 21  -x 40.647179999999999 -y 72.919370000000001 -Z 0 -z 2  -v circle -c black
n -t * -s 22  -x 92.207669999999993 -y 79.590959999999995 -Z 0 -z 2  -v circle -c black
V -t * -v 1.0a5 -a 0
W -t * -x 100 -y 100
A -t * -n 1 -p 0 -o 0x7fffffff -c 30 -a 1
A -t * -h 1 -m 1073741823 -s 0
n -t 0 -s 20 -S COLOR -c red -o black -i red -I black
n -t 0 -s 21 -S COLOR -c red -o black -i red -I black
n -t 0 -s 22 -S COLOR -c red -o black -i red -I black
n -t 0.000000 -s 20 -x 5.422921 -y 59.805810 -U 1.433035 -V 1.125776 -T 35.440295
n -t 0.000000 -s 21 -x 40.647180 -y 72.919370 -U 0.701666 -V -0.259578 -T 8.635432
n -t 0.000000 -s 22 -x 92.207670 -y 79.590960 -U -1.570522 -V -0.978044 -T 33.939634
n -t 0.000000 -s 18 -x 79.904120 -y 66.131680 -U -0.937433 -V -0.348165 -T 1.961298
n -t 0.000000 -s 10 -x 6.383877 -y 74.975130 -U -0.683173 -V -0.730257 -T 1.406607
n -t 0.000000 -s 4 -x 8.252050 -y 55.507380 -U -0.549781 -V 0.835309 -T 5.145918
n -t 0.000000 -s 8 -x 49.049220 -y 74.023170 -U -0.991481 -V -0.130254 -T 8.474235
n -t 0.000000 -s 19 -x 86.306480 -y 70.713050 -U 0.553569 -V 0.832804 -T 10.660269
n -t 0.000000 -s 16 -x 51.311180 -y 61.631610 -U 0.773017 -V -0.634386 -T 4.499432
n -t 0.000000 -s 11 -x 88.574850 -y 62.214630 -U 0.746897 -V 0.664940 -T 4.863887
n -t 0.000000 -s 7 -x 36.595290 -y 88.842950 -U 0.915431 -V -0.402476 -T 4.426212
n -t 0.000000 -s 14 -x 44.079790 -y 62.921650 -U -0.637871 -V -0.770143 -T 5.381356
n -t 0.000000 -s 1 -x 17.259430 -y 85.439880 -U 0.196710 -V -0.980462 -T 11.720942
n -t 0.000000 -s 17 -x 9.662004 -y 43.177110 -U -0.862557 -V 0.505959 -T 4.914553
n -t 0.000000 -s 9 -x 74.549270 -y 65.022760 -U -0.928596 -V 0.371092 -T 21.279385
n -t 0.000000 -s 13 -x 88.398730 -y 55.182620 -U 0.748883 -V 0.662702 -T 15.491430
n -t 0.000000 -s 5 -x 18.108350 -y 96.773430 -U 0.654027 -V -0.756471 -T 12.838456
n -t 0.000000 -s 12 -x 9.935810 -y 25.774330 -U 0.435758 -V 0.900064 -T 22.097701
n -t 0.000000 -s 3 -x 97.475030 -y 43.233880 -U -0.470948 -V 0.882161 -T 41.213660
n -t 0.000000 -s 2 -x 60.053150 -y 39.613660 -U -0.894886 -V 0.446296 -T 45.243879
n -t 0.000000 -s 4 -x 8.252050 -y 55.507380 -U -0.549781 -V 0.835309 -T 5.145918
n -t 0.000000 -s 10 -x 6.383877 -y 74.975130 -U 0.000000 -V 0.000000 -T 0.000000
n -t 0.000000 -s 1 -x 17.259430 -y 85.439880 -U 0.000000 -V 0.000000 -T 0.000000
n -t 0.000000 -s 17 -x 9.662004 -y 43.177110 -U 0.000000 -V 0.000000 -T 0.000000
n -t 0.000000 -s 12 -x 9.935810 -y 25.774330 -U 0.000000 -V 0.000000 -T 0.000000
n -t 0.000000 -s 2 -x 60.053150 -y 39.613660 -U 0.000000 -V 0.000000 -T 0.000000
n -t 0.000000 -s 8 -x 49.049220 -y 74.023170 -U -0.991481 -V -0.130254 -T 8.474235
n -t 0.000000 -s 16 -x 51.311180 -y 61.631610 -U 0.000000 -V 0.000000 -T 0.000000
n -t 0.000000 -s 7 -x 36.595290 -y 88.842950 -U 0.000000 -V 0.000000 -T 0.000000
n -t 0.000000 -s 14 -x 44.079790 -y 62.921650 -U 0.000000 -V 0.000000 -T 0.000000
n -t 0.000000 -s 9 -x 74.549270 -y 65.022760 -U 0.000000 -V 0.000000 -T 0.000000
n -t 0.000000 -s 5 -x 18.108350 -y 96.773430 -U 0.000000 -V 0.000000 -T 0.000000
n -t 0.000000 -s 18 -x 79.904120 -y 66.131680 -U 0.633656 -V 0.773615 -T 8.257610
n -t 0.000000 -s 19 -x 86.306480 -y 70.713050 -U 0.553569 -V 0.832804 -T 10.660269
n -t 1.000000 -s 10 -x 6.383877 -y 74.975130 -U 0.000000 -V 0.000000 -T 0.000000
n -t 1.000000 -s 4 -x 7.702269 -y 56.342689 -U 0.000000 -V 0.000000 -T 0.000000
n -t 1.000000 -s 1 -x 17.259430 -y 85.439880 -U 0.000000 -V 0.000000 -T 0.000000
n -t 1.000000 -s 17 -x 9.662004 -y 43.177110 -U 0.000000 -V 0.000000 -T 0.000000
n -t 1.000000 -s 12 -x 9.935810 -y 25.774330 -U 0.000000 -V 0.000000 -T 0.000000
n -t 1.000000 -s 2 -x 60.053150 -y 39.613660 -U 0.000000 -V 0.000000 -T 0.000000
n -t 1.000000 -s 8 -x 48.057739 -y 73.892916 -U 0.000000 -V 0.000000 -T 0.000000
n -t 1.000000 -s 16 -x 51.311180 -y 61.631610 -U 0.000000 -V 0.000000 -T 0.000000
n -t 1.000000 -s 7 -x 36.595290 -y 88.842950 -U 0.000000 -V 0.000000 -T 0.000000
n -t 1.000000 -s 14 -x 44.079790 -y 62.921650 -U 0.000000 -V 0.000000 -T 0.000000
n -t 1.000000 -s 9 -x 74.549270 -y 65.022760 -U 0.000000 -V 0.000000 -T 0.000000
n -t 1.000000 -s 5 -x 18.108350 -y 96.773430 -U 0.000000 -V 0.000000 -T 0.000000
n -t 1.000000 -s 18 -x 80.537776 -y 66.905295 -U 0.000000 -V 0.000000 -T 0.000000
n -t 1.000000 -s 19 -x 86.860049 -y 71.545854 -U 0.000000 -V 0.000000 -T 0.000000
n -t 1.000000 -s 11 -x 89.321747 -y 62.879570 -U 0.000000 -V 0.000000 -T 0.000000
n -t 1.000000 -s 13 -x 89.147613 -y 55.845322 -U 0.000000 -V 0.000000 -T 0.000000
n -t 1.000000 -s 3 -x 97.004082 -y 44.116041 -U 0.000000 -V 0.000000 -T 0.000000
n -t 1.000000 -s 9 -x 74.549270 -y 65.022760 -U 0.962038 -V -0.272917 -T 2.022522
n -t 1.000000 -s 4 -x 7.702269 -y 56.342689 -U -0.549781 -V 0.835309 -T 4.145918
n -t 1.000000 -s 10 -x 6.383877 -y 74.975130 -U -0.683173 -V -0.730257 -T 1.406607
n -t 1.000000 -s 11 -x 89.321747 -y 62.879570 -U 0.637147 -V 0.770742 -T 2.064517
n -t 1.000000 -s 8 -x 48.057739 -y 73.892916 -U -0.991481 -V -0.130254 -T 7.474235
n -t 1.000000 -s 19 -x 86.860049 -y 71.545854 -U 0.471365 -V 0.881938 -T 8.013105
n -t 1.000000 -s 16 -x 51.311180 -y 61.631610 -U 0.773017 -V -0.634386 -T 4.499432
n -t 1.000000 -s 7 -x 36.595290 -y 88.842950 -U 0.915431 -V -0.402476 -T 4.426212
n -t 1.000000 -s 14 -x 44.079790 -y 62.921650 -U -0.637871 -V -0.770143 -T 5.381356
n -t 1.000000 -s 1 -x 17.259430 -y 85.439880 -U 0.196710 -V -0.980462 -T 11.720942
n -t 1.000000 -s 17 -x 9.662004 -y 43.177110 -U -0.862557 -V 0.505959 -T 4.914553
n -t 1.000000 -s 18 -x 80.537776 -y 66.905295 -U -0.326399 -V 0.945232 -T 12.385973
n -t 1.000000 -s 13 -x 89.147613 -y 55.845322 -U 0.782851 -V 0.622209 -T 13.862641
n -t 1.000000 -s 5 -x 18.108350 -y 96.773430 -U 0.654027 -V -0.756471 -T 12.838456
n -t 1.000000 -s 2 -x 60.053150 -y 39.613660 -U -0.156108 -V 0.987740 -T 33.719108
n -t 1.000000 -s 12 -x 9.935810 -y 25.774330 -U 0.435758 -V 0.900064 -T 22.097701
n -t 1.000000 -s 3 -x 97.004082 -y 44.116041 -U 0.086520 -V 0.996250 -T 34.626722
n -t 1.000000 -s 4 -x 7.702269 -y 56.342689 -U -0.181368 -V 0.983415 -T 4.666286
n -t 1.000000 -s 10 -x 6.383877 -y 74.975130 -U 0.000000 -V 0.000000 -T 0.000000
n -t 1.000000 -s 1 -x 17.259430 -y 85.439880 -U 0.000000 -V 0.000000 -T 0.000000
n -t 1.000000 -s 17 -x 9.662004 -y 43.177110 -U 0.000000 -V 0.000000 -T 0.000000
n -t 1.000000 -s 12 -x 9.935810 -y 25.774330 -U 0.000000 -V 0.000000 -T 0.000000
n -t 1.000000 -s 8 -x 48.057739 -y 73.892916 -U -0.983524 -V -0.180776 -T 6.821279
n -t 1.000000 -s 16 -x 51.311180 -y 61.631610 -U 0.000000 -V 0.000000 -T 0.000000
n -t 1.000000 -s 7 -x 36.595290 -y 88.842950 -U 0.000000 -V 0.000000 -T 0.000000
n -t 1.000000 -s 14 -x 44.079790 -y 62.921650 -U 0.000000 -V 0.000000 -T 0.000000
n -t 1.000000 -s 5 -x 18.108350 -y 96.773430 -U 0.000000 -V 0.000000 -T 0.000000
n -t 1.000000 -s 2 -x 60.053150 -y 39.613660 -U 0.000000 -V 0.000000 -T 0.000000
n -t 1.000000 -s 9 -x 74.549270 -y 65.022760 -U 0.810383 -V 0.585901 -T 11.126606
n -t 1.000000 -s 19 -x 86.860049 -y 71.545854 -U 0.471365 -V 0.881938 -T 8.013105
n -t 1.000000 -s 9 -x 74.549270 -y 65.022760 -U 0.000000 -V 0.000000 -T 0.000000
n -t 1.000000 -s 11 -x 89.321747 -y 62.879570 -U 0.000000 -V 0.000000 -T 0.000000
n -t 1.000000 -s 18 -x 80.537776 -y 66.905295 -U 0.000000 -V 0.000000 -T 0.000000
n -t 1.000000 -s 13 -x 89.147613 -y 55.845322 -U 0.000000 -V 0.000000 -T 0.000000
n -t 1.000000 -s 3 -x 97.004082 -y 44.116041 -U 0.000000 -V 0.000000 -T 0.000000
n -t 2.000000 -s 4 -x 7.520901 -y 57.326104 -U 0.160246 -V 0.987077 -T 4.793199
n -t 2.000000 -s 10 -x 6.383877 -y 74.975130 -U 0.000000 -V 0.000000 -T 0.000000
n -t 2.000000 -s 1 -x 17.259430 -y 85.439880 -U 0.000000 -V 0.000000 -T 0.000000
n -t 2.000000 -s 17 -x 9.662004 -y 43.177110 -U 0.000000 -V 0.000000 -T 0.000000
n -t 2.000000 -s 12 -x 9.935810 -y 25.774330 -U 0.000000 -V 0.000000 -T 0.000000
n -t 2.000000 -s 8 -x 47.074215 -y 73.712140 -U -0.967552 -V -0.252674 -T 5.192181
n -t 2.000000 -s 16 -x 51.311180 -y 61.631610 -U 0.000000 -V 0.000000 -T 0.000000
n -t 2.000000 -s 7 -x 36.595290 -y 88.842950 -U 0.000000 -V 0.000000 -T 0.000000
n -t 2.000000 -s 14 -x 44.079790 -y 62.921650 -U 0.000000 -V 0.000000 -T 0.000000
n -t 2.000000 -s 5 -x 18.108350 -y 96.773430 -U 0.000000 -V 0.000000 -T 0.000000
n -t 2.000000 -s 2 -x 60.053150 -y 39.613660 -U 0.000000 -V 0.000000 -T 0.000000
n -t 2.000000 -s 9 -x 74.549270 -y 65.022760 -U 0.810383 -V 0.585901 -T 11.126606
n -t 2.000000 -s 19 -x 87.331414 -y 72.427792 -U 0.316149 -V 0.948710 -T 5.488592
n -t 2.000000 -s 9 -x 74.549270 -y 65.022760 -U 0.000000 -V 0.000000 -T 0.000000
n -t 2.000000 -s 11 -x 89.321747 -y 62.879570 -U 0.000000 -V 0.000000 -T 0.000000
n -t 2.000000 -s 18 -x 80.537776 -y 66.905295 -U 0.000000 -V 0.000000 -T 0.000000
n -t 2.000000 -s 13 -x 89.147613 -y 55.845322 -U 0.000000 -V 0.000000 -T 0.000000
n -t 2.000000 -s 3 -x 97.004082 -y 44.116041 -U 0.000000 -V 0.000000 -T 0.000000
n -t 3.000000 -s 4 -x 7.681147 -y 58.313181 -U 0.386507 -V 0.922286 -T 5.280309
n -t 3.000000 -s 10 -x 6.383877 -y 74.975130 -U 0.000000 -V 0.000000 -T 0.000000
n -t 3.000000 -s 1 -x 17.259430 -y 85.439880 -U 0.000000 -V 0.000000 -T 0.000000
n -t 3.000000 -s 17 -x 9.662004 -y 43.177110 -U 0.000000 -V 0.000000 -T 0.000000
n -t 3.000000 -s 12 -x 9.935810 -y 25.774330 -U 0.000000 -V 0.000000 -T 0.000000
n -t 3.000000 -s 8 -x 46.106663 -y 73.459467 -U -0.930657 -V -0.365892 -T 3.604426
n -t 3.000000 -s 16 -x 51.311180 -y 61.631610 -U 0.000000 -V 0.000000 -T 0.000000
n -t 3.000000 -s 7 -x 36.595290 -y 88.842950 -U 0.000000 -V 0.000000 -T 0.000000
n -t 3.000000 -s 14 -x 44.079790 -y 62.921650 -U 0.000000 -V 0.000000 -T 0.000000
n -t 3.000000 -s 5 -x 18.108350 -y 96.773430 -U 0.000000 -V 0.000000 -T 0.000000
n -t 3.000000 -s 2 -x 60.053150 -y 39.613660 -U 0.000000 -V 0.000000 -T 0.000000
n -t 3.000000 -s 9 -x 74.549270 -y 65.022760 -U 0.810383 -V 0.585901 -T 11.126606
n -t 3.000000 -s 19 -x 87.647563 -y 73.376501 -U -0.046123 -V 0.998936 -T 3.283821
n -t 3.000000 -s 9 -x 74.549270 -y 65.022760 -U 0.000000 -V 0.000000 -T 0.000000
n -t 3.000000 -s 11 -x 89.321747 -y 62.879570 -U 0.000000 -V 0.000000 -T 0.000000
n -t 3.000000 -s 18 -x 80.537776 -y 66.905295 -U 0.000000 -V 0.000000 -T 0.000000
n -t 3.000000 -s 13 -x 89.147613 -y 55.845322 -U 0.000000 -V 0.000000 -T 0.000000
n -t 3.000000 -s 3 -x 97.004082 -y 44.116041 -U 0.000000 -V 0.000000 -T 0.000000
n -t 4.000000 -s 4 -x 8.067654 -y 59.235468 -U 0.519851 -V 0.854257 -T 5.939017
n -t 4.000000 -s 10 -x 6.383877 -y 74.975130 -U 0.000000 -V 0.000000 -T 0.000000
n -t 4.000000 -s 1 -x 17.259430 -y 85.439880 -U 0.000000 -V 0.000000 -T 0.000000
n -t 4.000000 -s 17 -x 9.662004 -y 43.177110 -U 0.000000 -V 0.000000 -T 0.000000
n -t 4.000000 -s 12 -x 9.935810 -y 25.774330 -U 0.000000 -V 0.000000 -T 0.000000
n -t 4.000000 -s 8 -x 45.176006 -y 73.093574 -U -0.817667 -V -0.575692 -T 2.106191
n -t 4.000000 -s 16 -x 51.311180 -y 61.631610 -U 0.000000 -V 0.000000 -T 0.000000
n -t 4.000000 -s 7 -x 36.595290 -y 88.842950 -U 0.000000 -V 0.000000 -T 0.000000
n -t 4.000000 -s 14 -x 44.079790 -y 62.921650 -U 0.000000 -V 0.000000 -T 0.000000
n -t 4.000000 -s 5 -x 18.108350 -y 96.773430 -U 0.000000 -V 0.000000 -T 0.000000
n -t 4.000000 -s 2 -x 60.053150 -y 39.613660 -U 0.000000 -V 0.000000 -T 0.000000
n -t 4.000000 -s 9 -x 74.549270 -y 65.022760 -U 0.810383 -V 0.585901 -T 11.126606
n -t 4.000000 -s 19 -x 87.601440 -y 74.375437 -U -0.789375 -V 0.613911 -T 2.123020
n -t 4.000000 -s 9 -x 74.549270 -y 65.022760 -U 0.000000 -V 0.000000 -T 0.000000
n -t 4.000000 -s 11 -x 89.321747 -y 62.879570 -U 0.000000 -V 0.000000 -T 0.000000
n -t 4.000000 -s 18 -x 80.537776 -y 66.905295 -U 0.000000 -V 0.000000 -T 0.000000
n -t 4.000000 -s 13 -x 89.147613 -y 55.845322 -U 0.000000 -V 0.000000 -T 0.000000
n -t 4.000000 -s 3 -x 97.004082 -y 44.116041 -U 0.000000 -V 0.000000 -T 0.000000
n -t 5.000000 -s 4 -x 8.587505 -y 60.089724 -U 0.000000 -V 0.000000 -T 0.000000
n -t 5.000000 -s 10 -x 6.383877 -y 74.975130 -U 0.000000 -V 0.000000 -T 0.000000
n -t 5.000000 -s 1 -x 17.259430 -y 85.439880 -U 0.000000 -V 0.000000 -T 0.000000
n -t 5.000000 -s 17 -x 9.662004 -y 43.177110 -U 0.000000 -V 0.000000 -T 0.000000
n -t 5.000000 -s 12 -x 9.935810 -y 25.774330 -U 0.000000 -V 0.000000 -T 0.000000
n -t 5.000000 -s 8 -x 44.358340 -y 72.517882 -U 0.000000 -V 0.000000 -T 0.000000
n -t 5.000000 -s 16 -x 51.311180 -y 61.631610 -U 0.000000 -V 0.000000 -T 0.000000
n -t 5.000000 -s 7 -x 36.595290 -y 88.842950 -U 0.000000 -V 0.000000 -T 0.000000
n -t 5.000000 -s 14 -x 44.079790 -y 62.921650 -U 0.000000 -V 0.000000 -T 0.000000
n -t 5.000000 -s 5 -x 18.108350 -y 96.773430 -U 0.000000 -V 0.000000 -T 0.000000
n -t 5.000000 -s 2 -x 60.053150 -y 39.613660 -U 0.000000 -V 0.000000 -T 0.000000
n -t 5.000000 -s 9 -x 74.549270 -y 65.022760 -U 0.000000 -V 0.000000 -T 0.000000
n -t 5.000000 -s 11 -x 89.321747 -y 62.879570 -U 0.000000 -V 0.000000 -T 0.000000
n -t 5.000000 -s 19 -x 86.812065 -y 74.989349 -U 0.000000 -V 0.000000 -T 0.000000
n -t 5.000000 -s 18 -x 80.537776 -y 66.905295 -U 0.000000 -V 0.000000 -T 0.000000
n -t 5.000000 -s 13 -x 89.147613 -y 55.845322 -U 0.000000 -V 0.000000 -T 0.000000
n -t 5.000000 -s 3 -x 97.004082 -y 44.116041 -U 0.000000 -V 0.000000 -T 0.000000
n -t 5.000000 -s 8 -x 44.358340 -y 72.517882 -U -0.994199 -V 0.107556 -T 3.732814
n -t 5.000000 -s 9 -x 74.549270 -y 65.022760 -U 0.962038 -V -0.272917 -T 2.022522
n -t 5.000000 -s 19 -x 86.812065 -y 74.989349 -U 0.725971 -V 0.687725 -T 5.268918
n -t 5.000000 -s 11 -x 89.321747 -y 62.879570 -U 0.637147 -V 0.770742 -T 2.064517
n -t 5.000000 -s 4 -x 8.587505 -y 60.089724 -U 0.599220 -V 0.800585 -T 6.676328
n -t 5.000000 -s 16 -x 51.311180 -y 61.631610 -U 0.773017 -V -0.634386 -T 4.499432
n -t 5.000000 -s 7 -x 36.595290 -y 88.842950 -U 0.915431 -V -0.402476 -T 4.426212
n -t 5.000000 -s 14 -x 44.079790 -y 62.921650 -U -0.637871 -V -0.770143 -T 5.381356
n -t 5.000000 -s 1 -x 17.259430 -y 85.439880 -U 0.850258 -V -0.526366 -T 11.138737
n -t 5.000000 -s 10 -x 6.383877 -y 74.975130 -U 0.803187 -V 0.595727 -T 7.724500
n -t 5.000000 -s 18 -x 80.537776 -y 66.905295 -U -0.326399 -V 0.945232 -T 12.385973
n -t 5.000000 -s 17 -x 9.662004 -y 43.177110 -U 0.339184 -V 0.940720 -T 8.626844
n -t 5.000000 -s 13 -x 89.147613 -y 55.845322 -U 0.782851 -V 0.622209 -T 13.862641
n -t 5.000000 -s 5 -x 18.108350 -y 96.773430 -U 0.654027 -V -0.756471 -T 12.838456
n -t 5.000000 -s 2 -x 60.053150 -y 39.613660 -U -0.156108 -V 0.987740 -T 33.719108
n -t 5.000000 -s 12 -x 9.935810 -y 25.774330 -U 0.549756 -V 0.835325 -T 30.548851
n -t 5.000000 -s 3 -x 97.004082 -y 44.116041 -U 0.086520 -V 0.996250 -T 34.626722
n -t 5.000000 -s 4 -x 8.587505 -y 60.089724 -U 0.599220 -V 0.800585 -T 6.676328
n -t 5.000000 -s 1 -x 17.259430 -y 85.439880 -U 0.000000 -V 0.000000 -T 0.000000
n -t 5.000000 -s 10 -x 6.383877 -y 74.975130 -U 0.000000 -V 0.000000 -T 0.000000
n -t 5.000000 -s 17 -x 9.662004 -y 43.177110 -U 0.000000 -V 0.000000 -T 0.000000
n -t 5.000000 -s 12 -x 9.935810 -y 25.774330 -U 0.000000 -V 0.000000 -T 0.000000
n -t 5.000000 -s 8 -x 44.358340 -y 72.517882 -U -0.220691 -V -0.975344 -T 0.919064
n -t 5.000000 -s 16 -x 51.311180 -y 61.631610 -U 0.000000 -V 0.000000 -T 0.000000
n -t 5.000000 -s 7 -x 36.595290 -y 88.842950 -U 0.000000 -V 0.000000 -T 0.000000
n -t 5.000000 -s 14 -x 44.079790 -y 62.921650 -U 0.000000 -V 0.000000 -T 0.000000
n -t 5.000000 -s 5 -x 18.108350 -y 96.773430 -U 0.000000 -V 0.000000 -T 0.000000
n -t 5.000000 -s 2 -x 60.053150 -y 39.613660 -U 0.000000 -V 0.000000 -T 0.000000
n -t 5.000000 -s 9 -x 74.549270 -y 65.022760 -U 0.810383 -V 0.585901 -T 11.126606
n -t 5.000000 -s 19 -x 86.812065 -y 74.989349 -U -0.993172 -V -0.116662 -T 2.473899
n -t 5.000000 -s 9 -x 74.549270 -y 65.022760 -U 0.000000 -V 0.000000 -T 0.000000
n -t 5.000000 -s 11 -x 89.321747 -y 62.879570 -U 0.000000 -V 0.000000 -T 0.000000
n -t 5.000000 -s 18 -x 80.537776 -y 66.905295 -U 0.000000 -V 0.000000 -T 0.000000
n -t 5.000000 -s 13 -x 89.147613 -y 55.845322 -U 0.000000 -V 0.000000 -T 0.000000
n -t 5.000000 -s 3 -x 97.004082 -y 44.116041 -U 0.000000 -V 0.000000 -T 0.000000
n -t 6.000000 -s 4 -x 9.186725 -y 60.890309 -U 0.000000 -V 0.000000 -T 0.000000
n -t 6.000000 -s 1 -x 17.259430 -y 85.439880 -U 0.000000 -V 0.000000 -T 0.000000
n -t 6.000000 -s 10 -x 6.383877 -y 74.975130 -U 0.000000 -V 0.000000 -T 0.000000
n -t 6.000000 -s 17 -x 9.662004 -y 43.177110 -U 0.000000 -V 0.000000 -T 0.000000
n -t 6.000000 -s 12 -x 9.935810 -y 25.774330 -U 0.000000 -V 0.000000 -T 0.000000
n -t 6.000000 -s 8 -x 44.155510 -y 71.621479 -U 0.000000 -V 0.000000 -T 0.000000
n -t 6.000000 -s 16 -x 51.311180 -y 61.631610 -U 0.000000 -V 0.000000 -T 0.000000
n -t 6.000000 -s 7 -x 36.595290 -y 88.842950 -U 0.000000 -V 0.000000 -T 0.000000
n -t 6.000000 -s 14 -x 44.079790 -y 62.921650 -U 0.000000 -V 0.000000 -T 0.000000
n -t 6.000000 -s 5 -x 18.108350 -y 96.773430 -U 0.000000 -V 0.000000 -T 0.000000
n -t 6.000000 -s 2 -x 60.053150 -y 39.613660 -U 0.000000 -V 0.000000 -T 0.000000
n -t 6.000000 -s 9 -x 74.549270 -y 65.022760 -U 0.000000 -V 0.000000 -T 0.000000
n -t 6.000000 -s 19 -x 85.818893 -y 74.872687 -U 0.000000 -V 0.000000 -T 0.000000
n -t 6.000000 -s 11 -x 89.321747 -y 62.879570 -U 0.000000 -V 0.000000 -T 0.000000
n -t 6.000000 -s 18 -x 80.537776 -y 66.905295 -U 0.000000 -V 0.000000 -T 0.000000
n -t 6.000000 -s 13 -x 89.147613 -y 55.845322 -U 0.000000 -V 0.000000 -T 0.000000
n -t 6.000000 -s 3 -x 97.004082 -y 44.116041 -U 0.000000 -V 0.000000 -T 0.000000
n -t 6.000000 -s 19 -x 85.818893 -y 74.872687 -U -0.935097 -V -0.354393 -T 3.244966
n -t 6.000000 -s 8 -x 44.155510 -y 71.621479 -U -0.937878 -V 0.346964 -T 3.740709
n -t 6.000000 -s 4 -x 9.186725 -y 60.890309 -U 0.599220 -V 0.800585 -T 5.676328
n -t 6.000000 -s 16 -x 51.311180 -y 61.631610 -U 0.773017 -V -0.634386 -T 4.499432
n -t 6.000000 -s 9 -x 74.549270 -y 65.022760 -U -0.735442 -V -0.677588 -T 8.031728
n -t 6.000000 -s 7 -x 36.595290 -y 88.842950 -U 0.915431 -V -0.402476 -T 4.426212
n -t 6.000000 -s 14 -x 44.079790 -y 62.921650 -U -0.637871 -V -0.770143 -T 5.381356
n -t 6.000000 -s 11 -x 89.321747 -y 62.879570 -U -0.892760 -V -0.450532 -T 7.322471
n -t 6.000000 -s 1 -x 17.259430 -y 85.439880 -U 0.850258 -V -0.526366 -T 11.138737
n -t 6.000000 -s 10 -x 6.383877 -y 74.975130 -U 0.803187 -V 0.595727 -T 7.724500
n -t 6.000000 -s 13 -x 89.147613 -y 55.845322 -U 0.901465 -V 0.432852 -T 8.629354
n -t 6.000000 -s 18 -x 80.537776 -y 66.905295 -U -0.867613 -V 0.497241 -T 13.710466
n -t 6.000000 -s 17 -x 9.662004 -y 43.177110 -U 0.339184 -V 0.940720 -T 8.626844
n -t 6.000000 -s 5 -x 18.108350 -y 96.773430 -U 0.654027 -V -0.756471 -T 12.838456
n -t 6.000000 -s 2 -x 60.053150 -y 39.613660 -U -0.156108 -V 0.987740 -T 33.719108
n -t 6.000000 -s 12 -x 9.935810 -y 25.774330 -U 0.549756 -V 0.835325 -T 30.548851
n -t 6.000000 -s 3 -x 97.004082 -y 44.116041 -U -0.002615 -V 0.999997 -T 29.606755
n -t 6.000000 -s 4 -x 9.186725 -y 60.890309 -U 0.648798 -V 0.760960 -T 7.451317
n -t 6.000000 -s 1 -x 17.259430 -y 85.439880 -U 0.000000 -V 0.000000 -T 0.000000
n -t 6.000000 -s 10 -x 6.383877 -y 74.975130 -U 0.000000 -V 0.000000 -T 0.000000
n -t 6.000000 -s 17 -x 9.662004 -y 43.177110 -U 0.000000 -V 0.000000 -T 0.000000
n -t 6.000000 -s 12 -x 9.935810 -y 25.774330 -U 0.000000 -V 0.000000 -T 0.000000
n -t 6.000000 -s 8 -x 44.155510 -y 71.621479 -U 0.937878 -V -0.346964 -T 0.748142
n -t 6.000000 -s 16 -x 51.311180 -y 61.631610 -U 0.000000 -V 0.000000 -T 0.000000
n -t 6.000000 -s 7 -x 36.595290 -y 88.842950 -U 0.000000 -V 0.000000 -T 0.000000
n -t 6.000000 -s 14 -x 44.079790 -y 62.921650 -U 0.000000 -V 0.000000 -T 0.000000
n -t 6.000000 -s 5 -x 18.108350 -y 96.773430 -U 0.000000 -V 0.000000 -T 0.000000
n -t 6.000000 -s 2 -x 60.053150 -y 39.613660 -U 0.000000 -V 0.000000 -T 0.000000
n -t 6.000000 -s 9 -x 74.549270 -y 65.022760 -U 0.581477 -V 0.813563 -T 2.002141
n -t 6.000000 -s 19 -x 85.818893 -y 74.872687 -U -0.935097 -V -0.354393 -T 3.244966
n -t 6.000000 -s 9 -x 74.549270 -y 65.022760 -U 0.000000 -V 0.000000 -T 0.000000
n -t 6.000000 -s 11 -x 89.321747 -y 62.879570 -U 0.000000 -V 0.000000 -T 0.000000
n -t 6.000000 -s 13 -x 89.147613 -y 55.845322 -U 0.000000 -V 0.000000 -T 0.000000
n -t 6.000000 -s 18 -x 80.537776 -y 66.905295 -U 0.000000 -V 0.000000 -T 0.000000
n -t 6.000000 -s 3 -x 97.004082 -y 44.116041 -U 0.000000 -V 0.000000 -T 0.000000
n -t 7.000000 -s 4 -x 9.835524 -y 61.651269 -U 0.681410 -V 0.731902 -T 8.245605
n -t 7.000000 -s 1 -x 17.259430 -y 85.439880 -U 0.000000 -V 0.000000 -T 0.000000
n -t 7.000000 -s 10 -x 6.383877 -y 74.975130 -U 0.000000 -V 0.000000 -T 0.000000
n -t 7.000000 -s 17 -x 9.662004 -y 43.177110 -U 0.000000 -V 0.000000 -T 0.000000
n -t 7.000000 -s 12 -x 9.935810 -y 25.774330 -U 0.000000 -V 0.000000 -T 0.000000
n -t 7.000000 -s 8 -x 44.857177 -y 71.361901 -U 0.937878 -V -0.346964 -T 0.748142
n -t 7.000000 -s 16 -x 51.311180 -y 61.631610 -U 0.000000 -V 0.000000 -T 0.000000
n -t 7.000000 -s 7 -x 36.595290 -y 88.842950 -U 0.000000 -V 0.000000 -T 0.000000
n -t 7.000000 -s 14 -x 44.079790 -y 62.921650 -U 0.000000 -V 0.000000 -T 0.000000
n -t 7.000000 -s 5 -x 18.108350 -y 96.773430 -U 0.000000 -V 0.000000 -T 0.000000
n -t 7.000000 -s 2 -x 60.053150 -y 39.613660 -U 0.000000 -V 0.000000 -T 0.000000
n -t 7.000000 -s 9 -x 74.549270 -y 65.022760 -U 0.581477 -V 0.813563 -T 2.002141
n -t 7.000000 -s 19 -x 84.883796 -y 74.518294 -U -0.900357 -V -0.435152 -T 4.075919
n -t 7.000000 -s 9 -x 74.549270 -y 65.022760 -U 0.000000 -V 0.000000 -T 0.000000
n -t 7.000000 -s 11 -x 89.321747 -y 62.879570 -U 0.000000 -V 0.000000 -T 0.000000
n -t 7.000000 -s 13 -x 89.147613 -y 55.845322 -U 0.000000 -V 0.000000 -T 0.000000
n -t 7.000000 -s 18 -x 80.537776 -y 66.905295 -U 0.000000 -V 0.000000 -T 0.000000
n -t 7.000000 -s 3 -x 97.004082 -y 44.116041 -U 0.000000 -V 0.000000 -T 0.000000
n -t 8.000000 -s 4 -x 10.516934 -y 62.383171 -U 0.703863 -V 0.710336 -T 9.050432
n -t 8.000000 -s 1 -x 17.259430 -y 85.439880 -U 0.000000 -V 0.000000 -T 0.000000
n -t 8.000000 -s 10 -x 6.383877 -y 74.975130 -U 0.000000 -V 0.000000 -T 0.000000
n -t 8.000000 -s 17 -x 9.662004 -y 43.177110 -U 0.000000 -V 0.000000 -T 0.000000
n -t 8.000000 -s 12 -x 9.935810 -y 25.774330 -U 0.000000 -V 0.000000 -T 0.000000
n -t 8.000000 -s 8 -x 45.558843 -y 71.102323 -U 0.937878 -V -0.346964 -T 0.748142
n -t 8.000000 -s 16 -x 51.311180 -y 61.631610 -U 0.000000 -V 0.000000 -T 0.000000
n -t 8.000000 -s 7 -x 36.595290 -y 88.842950 -U 0.000000 -V 0.000000 -T 0.000000
n -t 8.000000 -s 14 -x 44.079790 -y 62.921650 -U 0.000000 -V 0.000000 -T 0.000000
n -t 8.000000 -s 5 -x 18.108350 -y 96.773430 -U 0.000000 -V 0.000000 -T 0.000000
n -t 8.000000 -s 2 -x 60.053150 -y 39.613660 -U 0.000000 -V 0.000000 -T 0.000000
n -t 8.000000 -s 9 -x 74.549270 -y 65.022760 -U 0.581477 -V 0.813563 -T 2.002141
n -t 8.000000 -s 19 -x 83.983439 -y 74.083142 -U -0.882193 -V -0.470888 -T 4.919500
n -t 8.000000 -s 9 -x 74.549270 -y 65.022760 -U 0.000000 -V 0.000000 -T 0.000000
n -t 8.000000 -s 11 -x 89.321747 -y 62.879570 -U 0.000000 -V 0.000000 -T 0.000000
n -t 8.000000 -s 13 -x 89.147613 -y 55.845322 -U 0.000000 -V 0.000000 -T 0.000000
n -t 8.000000 -s 18 -x 80.537776 -y 66.905295 -U 0.000000 -V 0.000000 -T 0.000000
n -t 8.000000 -s 3 -x 97.004082 -y 44.116041 -U 0.000000 -V 0.000000 -T 0.000000
n -t 9.000000 -s 4 -x 11.220797 -y 63.093507 -U 0.719925 -V 0.694052 -T 9.861351
n -t 9.000000 -s 1 -x 17.259430 -y 85.439880 -U 0.000000 -V 0.000000 -T 0.000000
n -t 9.000000 -s 10 -x 6.383877 -y 74.975130 -U 0.000000 -V 0.000000 -T 0.000000
n -t 9.000000 -s 17 -x 9.662004 -y 43.177110 -U 0.000000 -V 0.000000 -T 0.000000
n -t 9.000000 -s 12 -x 9.935810 -y 25.774330 -U 0.000000 -V 0.000000 -T 0.000000
n -t 9.000000 -s 8 -x 46.260509 -y 70.842744 -U 0.937878 -V -0.346964 -T 0.475393
n -t 9.000000 -s 16 -x 51.311180 -y 61.631610 -U 0.000000 -V 0.000000 -T 0.000000
n -t 9.000000 -s 7 -x 36.595290 -y 88.842950 -U 0.000000 -V 0.000000 -T 0.000000
n -t 9.000000 -s 14 -x 44.079790 -y 62.921650 -U 0.000000 -V 0.000000 -T 0.000000
n -t 9.000000 -s 5 -x 18.108350 -y 96.773430 -U 0.000000 -V 0.000000 -T 0.000000
n -t 9.000000 -s 2 -x 60.053150 -y 39.613660 -U 0.000000 -V 0.000000 -T 0.000000
n -t 9.000000 -s 9 -x 74.549270 -y 65.022760 -U 0.581477 -V 0.813563 -T 2.002141
n -t 9.000000 -s 18 -x 80.537776 -y 66.905295 -U -0.535890 -V 0.844288 -T 4.599460
n -t 9.000000 -s 19 -x 83.101246 -y 73.612254 -U 0.000000 -V 0.000000 -T 0.000000
n -t 9.000000 -s 9 -x 74.549270 -y 65.022760 -U 0.000000 -V 0.000000 -T 0.000000
n -t 9.000000 -s 11 -x 89.321747 -y 62.879570 -U 0.000000 -V 0.000000 -T 0.000000
n -t 9.000000 -s 13 -x 89.147613 -y 55.845322 -U 0.000000 -V 0.000000 -T 0.000000
n -t 9.000000 -s 3 -x 97.004082 -y 44.116041 -U 0.000000 -V 0.000000 -T 0.000000
n -t 10.000000 -s 4 -x 11.940722 -y 63.787558 -U 0.000000 -V 0.000000 -T 0.000000
n -t 10.000000 -s 1 -x 17.259430 -y 85.439880 -U 0.000000 -V 0.000000 -T 0.000000
n -t 10.000000 -s 10 -x 6.383877 -y 74.975130 -U 0.000000 -V 0.000000 -T 0.000000
n -t 10.000000 -s 17 -x 9.662004 -y 43.177110 -U 0.000000 -V 0.000000 -T 0.000000
n -t 10.000000 -s 12 -x 9.935810 -y 25.774330 -U 0.000000 -V 0.000000 -T 0.000000
n -t 10.000000 -s 8 -x 46.706370 -y 70.677800 -U 0.000000 -V 0.000000 -T 0.000000
n -t 10.000000 -s 16 -x 51.311180 -y 61.631610 -U 0.000000 -V 0.000000 -T 0.000000
n -t 10.000000 -s 7 -x 36.595290 -y 88.842950 -U 0.000000 -V 0.000000 -T 0.000000
n -t 10.000000 -s 14 -x 44.079790 -y 62.921650 -U 0.000000 -V 0.000000 -T 0.000000
n -t 10.000000 -s 5 -x 18.108350 -y 96.773430 -U 0.000000 -V 0.000000 -T 0.000000
n -t 10.000000 -s 2 -x 60.053150 -y 39.613660 -U 0.000000 -V 0.000000 -T 0.000000
n -t 10.000000 -s 19 -x 83.101246 -y 73.612254 -U 0.000000 -V 0.000000 -T 0.000000
n -t 10.000000 -s 9 -x 74.549270 -y 65.022760 -U 0.000000 -V 0.000000 -T 0.000000
n -t 10.000000 -s 11 -x 89.321747 -y 62.879570 -U 0.000000 -V 0.000000 -T 0.000000
n -t 10.000000 -s 13 -x 89.147613 -y 55.845322 -U 0.000000 -V 0.000000 -T 0.000000
n -t 10.000000 -s 18 -x 80.001885 -y 67.749583 -U 0.000000 -V 0.000000 -T 0.000000
n -t 10.000000 -s 3 -x 97.004082 -y 44.116041 -U 0.000000 -V 0.000000 -T 0.000000
n -t 10.000000 -s 19 -x 83.101246 -y 73.612254 -U -0.944236 -V 0.329268 -T 0.335414
n -t 10.000000 -s 8 -x 46.706370 -y 70.677800 -U -0.937878 -V 0.346964 -T 6.460528
n -t 10.000000 -s 1 -x 17.259430 -y 85.439880 -U 0.995620 -V -0.093490 -T 2.504808
n -t 10.000000 -s 7 -x 36.595290 -y 88.842950 -U -0.596030 -V -0.802962 -T 4.529784
n -t 10.000000 -s 4 -x 11.940722 -y 63.787558 -U 0.731788 -V 0.681532 -T 10.675963
n -t 10.000000 -s 16 -x 51.311180 -y 61.631610 -U 0.773017 -V -0.634386 -T 4.499432
n -t 10.000000 -s 9 -x 74.549270 -y 65.022760 -U -0.735442 -V -0.677588 -T 8.031728
n -t 10.000000 -s 10 -x 6.383877 -y 74.975130 -U -0.193809 -V -0.981039 -T 3.987160
n -t 10.000000 -s 14 -x 44.079790 -y 62.921650 -U -0.637871 -V -0.770143 -T 5.381356
n -t 10.000000 -s 11 -x 89.321747 -y 62.879570 -U -0.892760 -V -0.450532 -T 7.322471
n -t 10.000000 -s 13 -x 89.147613 -y 55.845322 -U 0.901465 -V 0.432852 -T 8.629354
n -t 10.000000 -s 18 -x 80.001885 -y 67.749583 -U -0.885097 -V 0.465407 -T 12.834172
n -t 10.000000 -s 5 -x 18.108350 -y 96.773430 -U 0.654027 -V -0.756471 -T 12.838456
n -t 10.000000 -s 2 -x 60.053150 -y 39.613660 -U -0.156108 -V 0.987740 -T 33.719108
n -t 10.000000 -s 17 -x 9.662004 -y 43.177110 -U 0.591825 -V 0.806067 -T 17.051100
n -t 10.000000 -s 3 -x 97.004082 -y 44.116041 -U -0.002615 -V 0.999997 -T 29.606755
n -t 10.000000 -s 7 -x 36.595290 -y 88.842950 -U -0.674036 -V -0.738698 -T 14.496190
n -t 10.000000 -s 4 -x 11.940722 -y 63.787558 -U 0.731788 -V 0.681532 -T 10.675963
n -t 10.000000 -s 8 -x 46.706370 -y 70.677800 -U 0.000000 -V 0.000000 -T 0.000000
n -t 10.000000 -s 16 -x 51.311180 -y 61.631610 -U 0.000000 -V 0.000000 -T 0.000000
n -t 10.000000 -s 14 -x 44.079790 -y 62.921650 -U 0.000000 -V 0.000000 -T 0.000000
n -t 10.000000 -s 5 -x 18.108350 -y 96.773430 -U 0.000000 -V 0.000000 -T 0.000000
n -t 10.000000 -s 2 -x 60.053150 -y 39.613660 -U 0.000000 -V 0.000000 -T 0.000000
n -t 10.000000 -s 9 -x 74.549270 -y 65.022760 -U 0.581477 -V 0.813563 -T 2.002141