n -t * -s 0  -x 47.796900000000001 -y 19.480979999999999 -Z 0 -z 1  -v circle -c black
n -t * -s 1  -x 21.246960000000001 -y 34.105550000000001 -Z 0 -z 1  -v circle -c black
n -t * -s 2  -x 68.839439999999996 -y 53.996989999999997 -Z 0 -z 1  -v circle -c black
n -t * -s 3  -x 88.737859999999998 -y 23.921900000000001 -Z 0 -z 1  -v circle -c black
n -t * -s 4  -x 67.314089999999993 -y 43.022019999999998 -Z 0 -z 1  -v circle -c black
n -t * -s 5  -x 55.925109999999997 -y 61.095140000000001 -Z 0 -z 1  -v circle -c black
n -t * -s 6  -x 27.859179999999999 -y 28.929690000000001 -Z 0 -z 1  -v circle -c black
n -t * -s 7  -x 57.317079999999997 -y 63.738329999999998 -Z 0 -z 1  -v circle -c black
n -t * -s 8  -x 53.777299999999997 -y 7.2403919999999999 -Z 0 -z 1  -v circle -c black
n -t * -s 9  -x 68.823400000000007 -y 95.137410000000003 -Z 0 -z 1  -v circle -c black
n -t * -s 10  -x 96.928460000000001 -y 63.110329999999998 -Z 0 -z 1  -v circle -c black
n -t * -s 11  -x 77.926090000000002 -y 96.120369999999994 -Z 0 -z 1  -v circle -c black
n -t * -s 12  -x 96.535839999999993 -y 86.316730000000007 -Z 0 -z 2  -v circle -c black
n -t * -s 13  -x 50.015560000000001 -y 43.305950000000003 -Z 0 -z 2  -v circle -c black
n -t * -s 14  -x 81.194699999999997 -y 25.86261 -Z 0 -z 2  -v circle -c black
V -t * -v 1.0a5 -a 0
W -t * -x 100 -y 100
A -t * -n 1 -p 0 -o 0x7fffffff -c 30 -a 1
A -t * -h 1 -m 1073741823 -s 0
n -t 0 -s 12 -S COLOR -c red -o black -i red -I black
n -t 0 -s 13 -S COLOR -c red -o black -i red -I black
n -t 0 -s 14 -S COLOR -c red -o black -i red -I black
n -t 0.000000 -s 12 -x 96.535840 -y 86.316730 -U -0.126032 -V -0.926037 -T 84.297451
n -t 0.000000 -s 13 -x 50.015560 -y 43.305950 -U -0.212474 -V -1.673672 -T 17.645429
n -t 0.000000 -s 14 -x 81.194700 -y 25.862610 -U -0.765361 -V -0.167856 -T 68.268058
n -t 0.000000 -s 3 -x 88.737860 -y 23.921900 -U -0.968461 -V 0.249166 -T 7.788814
n -t 0.000000 -s 4 -x 67.314090 -y 43.022020 -U -0.086352 -V -0.996265 -T 3.028587
n -t 0.000000 -s 10 -x 96.928460 -y 63.110330 -U -0.043275 -V 0.999063 -T 9.072764
n -t 0.000000 -s 5 -x 55.925110 -y 61.095140 -U -0.315259 -V -0.949006 -T 18.745081
n -t 0.000000 -s 0 -x 47.796900 -y 19.480980 -U 0.223345 -V 0.974739 -T 9.933767
n -t 0.000000 -s 11 -x 77.926090 -y 96.120370 -U 0.884741 -V -0.466083 -T 21.034119
n -t 0.000000 -s 6 -x 27.859180 -y 28.929690 -U 0.999574 -V 0.029201 -T 8.017663
n -t 0.000000 -s 2 -x 68.839440 -y 53.996990 -U -0.804942 -V 0.593354 -T 5.816252
n -t 0.000000 -s 8 -x 53.777300 -y 7.240392 -U 0.947499 -V 0.319758 -T 14.010845
n -t 0.000000 -s 7 -x 57.317080 -y 63.738330 -U -0.757624 -V -0.652691 -T 9.637394
n -t 0.000000 -s 9 -x 68.823400 -y 95.137410 -U 0.838444 -V -0.544988 -T 16.185103
n -t 0.000000 -s 1 -x 21.246960 -y 34.105550 -U 0.846464 -V 0.532446 -T 17.279491
n -t 0.000000 -s 11 -x 77.926090 -y 96.120370 -U 0.884741 -V -0.466083 -T 16.034119
n -t 0.000000 -s 5 -x 55.925110 -y 61.095140 -U -0.315259 -V -0.949006 -T 13.745081
n -t 0.000000 -s 3 -x 88.737860 -y 23.921900 -U -0.968461 -V 0.249166 -T 2.788814
n -t 0.000000 -s 4 -x 67.314090 -y 43.022020 -U 0.000000 -V 0.000000 -T 0.000000
n -t 0.000000 -s 8 -x 53.777300 -y 7.240392 -U 0.000000 -V 0.000000 -T 0.000000
n -t 1.000000 -s 10 -x 96.885185 -y 64.109393 -U 0.000000 -V 0.000000 -T 0.000000
n -t 1.000000 -s 11 -x 78.810831 -y 95.654287 -U 0.000000 -V 0.000000 -T 0.000000
n -t 1.000000 -s 9 -x 69.661844 -y 94.592422 -U 0.000000 -V 0.000000 -T 0.000000
n -t 1.000000 -s 5 -x 55.609851 -y 60.146134 -U 0.000000 -V 0.000000 -T 0.000000
n -t 1.000000 -s 0 -x 48.020245 -y 20.455719 -U 0.000000 -V 0.000000 -T 0.000000
n -t 1.000000 -s 6 -x 28.858754 -y 28.958891 -U 0.000000 -V 0.000000 -T 0.000000
n -t 1.000000 -s 2 -x 68.034498 -y 54.590344 -U 0.000000 -V 0.000000 -T 0.000000
n -t 1.000000 -s 7 -x 56.559456 -y 63.085639 -U 0.000000 -V 0.000000 -T 0.000000
n -t 1.000000 -s 1 -x 22.093424 -y 34.637996 -U 0.000000 -V 0.000000 -T 0.000000
n -t 1.000000 -s 3 -x 87.769399 -y 24.171066 -U 0.000000 -V 0.000000 -T 0.000000
n -t 1.000000 -s 4 -x 67.314090 -y 43.022020 -U 0.000000 -V 0.000000 -T 0.000000
n -t 1.000000 -s 8 -x 53.777300 -y 7.240392 -U 0.000000 -V 0.000000 -T 0.000000
n -t 1.000000 -s 3 -x 87.769399 -y 24.171066 -U -0.968461 -V 0.249166 -T 6.788814
n -t 1.000000 -s 4 -x 67.314090 -y 43.022020 -U -0.086352 -V -0.996265 -T 3.028587
n -t 1.000000 -s 10 -x 96.885185 -y 64.109393 -U -0.066440 -V 0.997790 -T 7.154973
n -t 1.000000 -s 0 -x 48.020245 -y 20.455719 -U 0.245677 -V 0.969352 -T 7.256833
n -t 1.000000 -s 5 -x 55.609851 -y 60.146134 -U -0.299270 -V -0.954169 -T 19.403129
n -t 1.000000 -s 11 -x 78.810831 -y 95.654287 -U 0.863832 -V -0.503780 -T 20.373153
n -t 1.000000 -s 6 -x 28.858754 -y 28.958891 -U 0.977473 -V -0.211059 -T 6.958958
n -t 1.000000 -s 2 -x 68.034498 -y 54.590344 -U -0.960543 -V 0.278130 -T 4.257253
n -t 1.000000 -s 8 -x 53.777300 -y 7.240392 -U 0.947499 -V 0.319758 -T 14.010845
n -t 1.000000 -s 7 -x 56.559456 -y 63.085639 -U -0.678689 -V -0.734425 -T 9.955026
n -t 1.000000 -s 1 -x 22.093424 -y 34.637996 -U 0.888842 -V 0.458213 -T 15.264264
n -t 1.000000 -s 9 -x 69.661844 -y 94.592422 -U 0.807703 -V -0.589590 -T 15.607009
n -t 1.000000 -s 11 -x 78.810831 -y 95.654287 -U 0.863832 -V -0.503780 -T 15.373153
n -t 1.000000 -s 0 -x 48.020245 -y 20.455719 -U 0.125396 -V 0.992107 -T 14.217714
n -t 1.000000 -s 5 -x 55.609851 -y 60.146134 -U -0.299270 -V -0.954169 -T 14.403129
n -t 1.000000 -s 3 -x 87.769399 -y 24.171066 -U -0.979126 -V 0.203252 -T 2.496540
n -t 1.000000 -s 4 -x 67.314090 -y 43.022020 -U 0.000000 -V 0.000000 -T 0.000000
n -t 1.000000 -s 8 -x 53.777300 -y 7.240392 -U 0.000000 -V 0.000000 -T 0.000000
n -t 2.000000 -s 10 -x 96.818745 -y 65.107184 -U 0.000000 -V 0.000000 -T 0.000000
n -t 2.000000 -s 11 -x 79.674663 -y 95.150507 -U 0.000000 -V 0.000000 -T 0.000000
n -t 2.000000 -s 9 -x 70.469547 -y 94.002833 -U 0.000000 -V 0.000000 -T 0.000000
n -t 2.000000 -s 0 -x 48.145641 -y 21.447826 -U 0.000000 -V 0.000000 -T 0.000000
n -t 2.000000 -s 5 -x 55.310582 -y 59.191966 -U 0.000000 -V 0.000000 -T 0.000000
n -t 2.000000 -s 6 -x 29.836227 -y 28.747832 -U 0.000000 -V 0.000000 -T 0.000000
n -t 2.000000 -s 2 -x 67.073955 -y 54.868474 -U 0.000000 -V 0.000000 -T 0.000000
n -t 2.000000 -s 7 -x 55.880767 -y 62.351213 -U 0.000000 -V 0.000000 -T 0.000000
n -t 2.000000 -s 1 -x 22.982266 -y 35.096209 -U 0.000000 -V 0.000000 -T 0.000000
n -t 2.000000 -s 3 -x 86.790273 -y 24.374319 -U 0.000000 -V 0.000000 -T 0.000000
n -t 2.000000 -s 4 -x 67.314090 -y 43.022020 -U 0.000000 -V 0.000000 -T 0.000000
n -t 2.000000 -s 8 -x 53.777300 -y 7.240392 -U 0.000000 -V 0.000000 -T 0.000000
n -t 2.000000 -s 3 -x 86.790273 -y 24.374319 -U -0.966401 -V 0.257040 -T 5.790116
n -t 2.000000 -s 4 -x 67.314090 -y 43.022020 -U -0.086352 -V -0.996265 -T 3.028587
n -t 2.000000 -s 0 -x 48.145641 -y 21.447826 -U 0.314028 -V 0.949414 -T 4.601412
n -t 2.000000 -s 10 -x 96.818745 -y 65.107184 -U -0.102041 -V 0.994780 -T 5.242702
n -t 2.000000 -s 2 -x 67.073955 -y 54.868474 -U -0.974603 -V -0.223941 -T 3.428277
n -t 2.000000 -s 6 -x 29.836227 -y 28.747832 -U 0.886375 -V -0.462967 -T 6.331684
n -t 2.000000 -s 11 -x 79.674663 -y 95.150507 -U 0.840981 -V -0.541064 -T 19.749685
n -t 2.000000 -s 5 -x 55.310582 -y 59.191966 -U -0.285059 -V -0.958510 -T 20.065896
n -t 2.000000 -s 8 -x 53.777300 -y 7.240392 -U 0.947499 -V 0.319758 -T 14.010845
n -t 2.000000 -s 1 -x 22.982266 -y 35.096209 -U 0.931640 -V 0.363383 -T 13.380930
n -t 2.000000 -s 9 -x 70.469547 -y 94.002833 -U 0.774338 -V -0.632772 -T 15.073638
n -t 2.000000 -s 7 -x 55.880767 -y 62.351213 -U -0.606292 -V -0.795242 -T 10.374793
n -t 2.000000 -s 10 -x 96.818745 -y 65.107184 -U -0.043500 -V 0.999053 -T 12.298045
n -t 2.000000 -s 10 -x 96.818745 -y 65.107184 -U -0.027626 -V 0.999618 -T 14.364863
n -t 2.000000 -s 0 -x 48.145641 -y 21.447826 -U 0.125316 -V 0.992117 -T 11.530609
n -t 2.000000 -s 0 -x 48.145641 -y 21.447826 -U 0.077824 -V 0.996967 -T 13.567092
n -t 2.000000 -s 3 -x 86.790273 -y 24.374319 -U -0.987172 -V 0.159662 -T 2.218900
n -t 2.000000 -s 4 -x 67.314090 -y 43.022020 -U 0.000000 -V 0.000000 -T 0.000000
n -t 2.000000 -s 8 -x 53.777300 -y 7.240392 -U 0.000000 -V 0.000000 -T 0.000000
n -t 3.000000 -s 10 -x 96.791119 -y 66.106802 -U 0.000000 -V 0.000000 -T 0.000000
n -t 3.000000 -s 11 -x 80.515644 -y 94.609442 -U 0.000000 -V 0.000000 -T 0.000000
n -t 3.000000 -s 9 -x 71.243885 -y 93.370061 -U 0.000000 -V 0.000000 -T 0.000000
n -t 3.000000 -s 0 -x 48.223465 -y 22.444793 -U 0.000000 -V 0.000000 -T 0.000000
n -t 3.000000 -s 2 -x 66.099352 -y 54.644533 -U 0.000000 -V 0.000000 -T 0.000000
n -t 3.000000 -s 6 -x 30.722602 -y 28.284865 -U 0.000000 -V 0.000000 -T 0.000000
n -t 3.000000 -s 5 -x 55.025522 -y 58.233456 -U 0.000000 -V 0.000000 -T 0.000000
n -t 3.000000 -s 1 -x 23.913906 -y 35.459592 -U 0.000000 -V 0.000000 -T 0.000000
n -t 3.000000 -s 7 -x 55.274475 -y 61.555971 -U 0.000000 -V 0.000000 -T 0.000000
n -t 3.000000 -s 3 -x 85.803101 -y 24.533980 -U 0.000000 -V 0.000000 -T 0.000000
n -t 3.000000 -s 4 -x 67.314090 -y 43.022020 -U 0.000000 -V 0.000000 -T 0.000000
n -t 3.000000 -s 8 -x 53.777300 -y 7.240392 -U 0.000000 -V 0.000000 -T 0.000000
n -t 3.000000 -s 0 -x 48.223465 -y 22.444793 -U 0.562319 -V 0.826920 -T 2.053409
n -t 3.000000 -s 3 -x 85.803101 -y 24.533980 -U -0.960863 -V 0.277023 -T 4.796104
n -t 3.000000 -s 10 -x 96.791119 -y 66.106802 -U -0.189062 -V 0.981965 -T 3.350099
n -t 3.000000 -s 4 -x 67.314090 -y 43.022020 -U -0.086352 -V -0.996265 -T 3.028587
n -t 3.000000 -s 2 -x 66.099352 -y 54.644533 -U -0.758264 -V -0.651947 -T 3.401293
n -t 3.000000 -s 11 -x 80.515644 -y 94.609442 -U 0.438840 -V 0.898565 -T 3.418018
n -t 3.000000 -s 6 -x 30.722602 -y 28.284865 -U 0.736765 -V -0.676149 -T 6.125968
n -t 3.000000 -s 5 -x 55.025522 -y 58.233456 -U -0.272393 -V -0.962186 -T 20.732498
n -t 3.000000 -s 9 -x 71.243885 -y 93.370061 -U 0.930193 -V -0.367070 -T 26.783532
n -t 3.000000 -s 8 -x 53.777300 -y 7.240392 -U 0.947499 -V 0.319758 -T 14.010845
n -t 3.000000 -s 1 -x 23.913906 -y 35.459592 -U 0.970247 -V 0.242118 -T 11.669293
n -t 3.000000 -s 7 -x 55.274475 -y 61.555971 -U -0.542564 -V -0.840015 -T 10.867550
n -t 3.000000 -s 10 -x 96.791119 -y 66.106802 -U -0.061018 -V 0.998137 -T 10.380090
n -t 3.000000 -s 10 -x 96.791119 -y 66.106802 -U -0.036311 -V 0.999341 -T 12.443319
n -t 3.000000 -s 0 -x 48.223465 -y 22.444793 -U 0.130549 -V 0.991442 -T 8.844767
n -t 3.000000 -s 0 -x 48.223465 -y 22.444793 -U 0.072702 -V 0.997354 -T 10.882170
n -t 3.000000 -s 3 -x 85.803101 -y 24.533980 -U -0.992936 -V 0.118653 -T 1.953606
n -t 3.000000 -s 4 -x 67.314090 -y 43.022020 -U 0.000000 -V 0.000000 -T 0.000000
n -t 3.000000 -s 8 -x 53.777300 -y 7.240392 -U 0.000000 -V 0.000000 -T 0.000000
n -t 4.000000 -s 10 -x 96.754809 -y 67.106143 -U 0.000000 -V 0.000000 -T 0.000000
n -t 4.000000 -s 11 -x 80.954484 -y 95.508008 -U 0.000000 -V 0.000000 -T 0.000000
n -t 4.000000 -s 9 -x 72.174078 -y 93.002990 -U 0.000000 -V 0.000000 -T 0.000000
n -t 4.000000 -s 0 -x 48.296168 -y 23.442147 -U 0.000000 -V 0.000000 -T 0.000000
n -t 4.000000 -s 2 -x 65.341088 -y 53.992586 -U 0.000000 -V 0.000000 -T 0.000000
n -t 4.000000 -s 6 -x 31.459367 -y 27.608716 -U 0.000000 -V 0.000000 -T 0.000000
n -t 4.000000 -s 5 -x 54.753130 -y 57.271270 -U 0.000000 -V 0.000000 -T 0.000000
n -t 4.000000 -s 1 -x 24.884153 -y 35.701709 -U 0.000000 -V 0.000000 -T 0.000000
n -t 4.000000 -s 7 -x 54.731911 -y 60.715956 -U 0.000000 -V 0.000000 -T 0.000000
n -t 4.000000 -s 3 -x 84.810165 -y 24.652633 -U 0.000000 -V 0.000000 -T 0.000000
n -t 4.000000 -s 4 -x 67.314090 -y 43.022020 -U 0.000000 -V 0.000000 -T 0.000000
n -t 4.000000 -s 8 -x 53.777300 -y 7.240392 -U 0.000000 -V 0.000000 -T 0.000000
n -t 4.000000 -s 0 -x 48.296168 -y 23.442147 -U 0.666326 -V -0.745661 -T 1.304910
n -t 4.000000 -s 10 -x 96.754809 -y 67.106143 -U -0.468302 -V 0.883568 -T 1.544083
n -t 4.000000 -s 3 -x 84.810165 -y 24.652633 -U -0.948303 -V 0.317366 -T 3.812563
n -t 4.000000 -s 11 -x 80.954484 -y 95.508008 -U 0.600024 -V 0.799982 -T 1.558422
n -t 4.000000 -s 4 -x 67.314090 -y 43.022020 -U -0.086352 -V -0.996265 -T 3.028587
n -t 4.000000 -s 6 -x 31.459367 -y 27.608716 -U 0.569856 -V -0.821744 -T 6.254488
n -t 4.000000 -s 2 -x 65.341088 -y 53.992586 -U -0.531652 -V -0.846963 -T 3.824474
n -t 4.000000 -s 5 -x 54.753130 -y 57.271270 -U -0.261069 -V -0.965320 -T 21.402236
n -t 4.000000 -s 9 -x 72.174078 -y 93.002990 -U 0.916824 -V -0.399292 -T 26.022053
n -t 4.000000 -s 1 -x 24.884153 -y 35.701709 -U 0.996001 -V 0.089346 -T 10.180088
n -t 4.000000 -s 8 -x 53.777300 -y 7.240392 -U 0.947499 -V 0.319758 -T 14.010845
n -t 4.000000 -s 7 -x 54.731911 -y 60.715956 -U -0.487750 -V -0.872983 -T 11.412086
n -t 4.000000 -s 10 -x 96.754809 -y 67.106143 -U -0.085409 -V 0.996346 -T 8.466307
n -t 4.000000 -s 10 -x 96.754809 -y 67.106143 -U -0.046581 -V 0.998914 -T 10.523289
n -t 4.000000 -s 0 -x 48.296168 -y 23.442147 -U 0.141158 -V 0.989987 -T 6.159724
n -t 4.000000 -s 0 -x 48.296168 -y 23.442147 -U 0.065882 -V 0.997827 -T 8.197788
n -t 4.000000 -s 3 -x 84.810165 -y 24.652633 -U -0.996763 -V 0.080398 -T 1.698594
n -t 4.000000 -s 4 -x 67.314090 -y 43.022020 -U 0.000000 -V 0.000000 -T 0.000000
n -t 4.000000 -s 8 -x 53.777300 -y 7.240392 -U 0.000000 -V 0.000000 -T 0.000000
n -t 5.000000 -s 10 -x 96.708227 -y 68.105057 -U 0.000000 -V 0.000000 -T 0.000000
n -t 5.000000 -s 11 -x 81.554509 -y 96.307989 -U 0.000000 -V 0.000000 -T 0.000000
n -t 5.000000 -s 9 -x 73.090902 -y 92.603698 -U 0.000000 -V 0.000000 -T 0.000000
n -t 5.000000 -s 0 -x 48.362050 -y 24.439974 -U 0.000000 -V 0.000000 -T 0.000000
n -t 5.000000 -s 6 -x 32.029224 -y 26.786972 -U 0.000000 -V 0.000000 -T 0.000000
n -t 5.000000 -s 2 -x 64.809436 -y 53.145623 -U 0.000000 -V 0.000000 -T 0.000000
n -t 5.000000 -s 5 -x 54.492060 -y 56.305950 -U 0.000000 -V 0.000000 -T 0.000000
n -t 5.000000 -s 1 -x 25.880154 -y 35.791056 -U 0.000000 -V 0.000000 -T 0.000000
n -t 5.000000 -s 7 -x 54.244161 -y 59.842973 -U 0.000000 -V 0.000000 -T 0.000000
n -t 5.000000 -s 3 -x 83.813402 -y 24.733031 -U 0.000000 -V 0.000000 -T 0.000000
n -t 5.000000 -s 4 -x 67.314090 -y 43.022020 -U 0.000000 -V 0.000000 -T 0.000000
n -t 5.000000 -s 8 -x 53.777300 -y 7.240392 -U 0.000000 -V 0.000000 -T 0.000000
n -t 5.000000 -s 10 -x 96.708227 -y 68.105057 -U -0.819776 -V -0.572684 -T 0.978985
n -t 5.000000 -s 11 -x 81.554509 -y 96.307989 -U 0.399753 -V -0.916623 -T 0.522909
n -t 5.000000 -s 3 -x 83.813402 -y 24.733031 -U -0.918219 -V 0.396074 -T 2.851938
n -t 5.000000 -s 0 -x 48.362050 -y 24.439974 -U 0.160107 -V -0.987100 -T 3.692150
n -t 5.000000 -s 4 -x 67.314090 -y 43.022020 -U -0.086352 -V -0.996265 -T 3.028587
n -t 5.000000 -s 6 -x 32.029224 -y 26.786972 -U 0.900959 -V 0.433904 -T 18.784386
n -t 5.000000 -s 2 -x 64.809436 -y 53.145623 -U -0.388472 -V -0.921461 -T 4.412448
n -t 5.000000 -s 9 -x 73.090902 -y 92.603698 -U 0.902046 -V -0.431640 -T 25.292257
n -t 5.000000 -s 1 -x 25.880154 -y 35.791056 -U 0.995465 -V -0.095130 -T 8.971586
n -t 5.000000 -s 8 -x 53.777300 -y 7.240392 -U 0.947499 -V 0.319758 -T 14.010845
n -t 5.000000 -s 5 -x 54.492060 -y 56.305950 -U -0.608346 -V -0.793672 -T 9.104802
n -t 5.000000 -s 7 -x 54.244161 -y 59.842973 -U 0.352711 -V -0.935732 -T 36.314189
n -t 5.000000 -s 10 -x 96.708227 -y 68.105057 -U -0.122345 -V 0.992488 -T 6.559698
n -t 5.000000 -s 10 -x 96.708227 -y 68.105057 -U -0.058988 -V 0.998259 -T 8.605178
n -t 5.000000 -s 0 -x 48.362050 -y 24.439974 -U 0.170006 -V 0.985443 -T 3.477165
n -t 5.000000 -s 0 -x 48.362050 -y 24.439974 -U 0.056223 -V 0.998418 -T 5.514246
n -t 5.000000 -s 3 -x 83.813402 -y 24.733031 -U -0.998987 -V 0.044994 -T 1.452042
n -t 5.000000 -s 4 -x 67.314090 -y 43.022020 -U 0.000000 -V 0.000000 -T 0.000000
n -t 5.000000 -s 8 -x 53.777300 -y 7.240392 -U 0.000000 -V 0.000000 -T 0.000000
n -t 5.000000 -s 7 -x 54.244161 -y 59.842973 -U 0.000000 -V 0.000000 -T 0.000000
n -t 6.000000 -s 10 -x 96.649239 -y 69.103316 -U 0.000000 -V 0.000000 -T 0.000000
n -t 6.000000 -s 11 -x 81.763543 -y 95.828679 -U 0.000000 -V 0.000000 -T 0.000000
n -t 6.000000 -s 9 -x 73.992948 -y 92.172058 -U 0.000000 -V 0.000000 -T 0.000000
n -t 6.000000 -s 0 -x 48.418272 -y 25.438393 -U 0.000000 -V 0.000000 -T 0.000000
n -t 6.000000 -s 6 -x 32.930183 -y 27.220876 -U 0.000000 -V 0.000000 -T 0.000000
n -t 6.000000 -s 2 -x 64.420964 -y 52.224162 -U 0.000000 -V 0.000000 -T 0.000000
n -t 6.000000 -s 1 -x 26.875619 -y 35.695926 -U 0.000000 -V 0.000000 -T 0.000000
n -t 6.000000 -s 5 -x 53.883714 -y 55.512278 -U 0.000000 -V 0.000000 -T 0.000000
n -t 6.000000 -s 3 -x 82.814415 -y 24.778025 -U 0.000000 -V 0.000000 -T 0.000000
n -t 6.000000 -s 4 -x 67.314090 -y 43.022020 -U 0.000000 -V 0.000000 -T 0.000000
n -t 6.000000 -s 8 -x 53.777300 -y 7.240392 -U 0.000000 -V 0.000000 -T 0.000000
n -t 6.000000 -s 7 -x 54.244161 -y 59.842973 -U 0.000000 -V 0.000000 -T 0.000000
n -t 6.000000 -s 3 -x 82.814415 -y 24.778025 -U -0.830918 -V 0.556395 -T 1.949308
n -t 6.000000 -s 11 -x 81.763543 -y 95.828679 -U -0.134855 -V -0.990865 -T 0.934574
n -t 6.000000 -s 10 -x 96.649239 -y 69.103316 -U -0.330304 -V -0.943875 -T 2.632706
n -t 6.000000 -s 0 -x 48.418272 -y 25.438393 -U 0.041169 -V 0.999152 -T 7.832165
n -t 6.000000 -s 4 -x 67.314090 -y 43.022020 -U -0.086352 -V -0.996265 -T 3.028587
n -t 6.000000 -s 9 -x 73.992948 -y 92.172058 -U 0.885840 -V -0.463990 -T 24.594384
n -t 6.000000 -s 6 -x 32.930183 -y 27.220876 -U 0.201761 -V -0.979435 -T 8.269151
n -t 6.000000 -s 2 -x 64.420964 -y 52.224162 -U -0.304116 -V -0.952635 -T 5.057664
n -t 6.000000 -s 8 -x 53.777300 -y 7.240392 -U -0.390287 -V 0.920693 -T 12.904830
n -t 6.000000 -s 1 -x 26.875619 -y 35.695926 -U 0.953824 -V -0.300365 -T 8.096837
n -t 6.000000 -s 5 -x 53.883714 -y 55.512278 -U -0.535725 -V -0.844392 -T 9.600069
n -t 6.000000 -s 7 -x 54.244161 -y 59.842973 -U 0.352711 -V -0.935732 -T 36.314189
n -t 6.000000 -s 10 -x 96.649239 -y 69.103316 -U -0.186294 -V 0.982494 -T 4.667838
n -t 6.000000 -s 10 -x 96.649239 -y 69.103316 -U -0.074390 -V 0.997229 -T 6.689580
n -t 6.000000 -s 0 -x 48.418272 -y 25.438393 -U 0.041169 -V 0.999152 -T 2.832165
n -t 6.000000 -s 6 -x 32.930183 -y 27.220876 -U 0.000000 -V 0.000000 -T 0.000000
n -t 6.000000 -s 2 -x 64.420964 -y 52.224162 -U 0.000000 -V 0.000000 -T 0.000000
n -t 6.000000 -s 8 -x 53.777300 -y 7.240392 -U 0.000000 -V 0.000000 -T 0.000000
n -t 6.000000 -s 1 -x 26.875619 -y 35.695926 -U 0.000000 -V 0.000000 -T 0.000000
n -t 6.000000 -s 5 -x 53.883714 -y 55.512278 -U 0.000000 -V 0.000000 -T 0.000000
n -t 6.000000 -s 3 -x 82.814415 -y 24.778025 -U -0.999922 -V 0.012467 -T 1.212364
n -t 6.000000 -s 4 -x 67.314090 -y 43.022020 -U 0.000000 -V 0.000000 -T 0.000000
n -t 6.000000 -s 7 -x 54.244161 -y 59.842973 -U 0.000000 -V 0.000000 -T 0.000000
n -t 7.000000 -s 11 -x 81.637511 -y 94.902642 -U 0.000000 -V 0.000000 -T 0.000000
n -t 7.000000 -s 10 -x 96.574849 -y 70.100545 -U 0.000000 -V 0.000000 -T 0.000000
n -t 7.000000 -s 9 -x 74.878788 -y 91.708068 -U 0.000000 -V 0.000000 -T 0.000000
n -t 7.000000 -s 0 -x 48.459441 -y 26.437545 -U 0.000000 -V 0.000000 -T 0.000000
n -t 7.000000 -s 6 -x 32.930183 -y 27.220876 -U 0.000000 -V 0.000000 -T 0.000000
n -t 7.000000 -s 2 -x 64.420964 -y 52.224162 -U 0.000000 -V 0.000000 -T 0.000000
n -t 7.000000 -s 8 -x 53.777300 -y 7.240392 -U 0.000000 -V 0.000000 -T 0.000000
n -t 7.000000 -s 1 -x 26.875619 -y 35.695926 -U 0.000000 -V 0.000000 -T 0.000000
n -t 7.000000 -s 5 -x 53.883714 -y 55.512278 -U 0.000000 -V 0.000000 -T 0.000000
n -t 7.000000 -s 3 -x 81.814493 -y 24.790492 -U 0.000000 -V 0.000000 -T 0.000000
n -t 7.000000 -s 4 -x 67.314090 -y 43.022020 -U 0.000000 -V 0.000000 -T 0.000000
n -t 7.000000 -s 7 -x 54.244161 -y 59.842973 -U 0.000000 -V 0.000000 -T 0.000000
n -t 7.000000 -s 3 -x 81.814493 -y 24.790492 -U -0.500488 -V 0.865744 -T 1.238378
n -t 7.000000 -s 11 -x 81.637511 -y 94.902642 -U -0.134855 -V -0.990865 -T 0.934574
n -t 7.000000 -s 0 -x 48.459441 -y 26.437545 -U 0.041169 -V 0.999152 -T 6.832165
n -t 7.000000 -s 10 -x 96.574849 -y 70.100545 -U -0.204562 -V -0.978854 -T 4.503443
n -t 7.000000 -s 4 -x 67.314090 -y 43.022020 -U -0.086352 -V -0.996265 -T 3.028587
n -t 7.000000 -s 9 -x 74.878788 -y 91.708068 -U 0.868202 -V -0.496210 -T 23.928555
n -t 7.000000 -s 6 -x 32.930183 -y 27.220876 -U 0.201761 -V -0.979435 -T 8.269151
n -t 7.000000 -s 2 -x 64.420964 -y 52.224162 -U -0.304116 -V -0.952635 -T 5.057664
n -t 7.000000 -s 8 -x 53.777300 -y 7.240392 -U -0.390287 -V 0.920693 -T 12.904830
n -t 7.000000 -s 1 -x 26.875619 -y 35.695926 -U 0.953824 -V -0.300365 -T 8.096837
n -t 7.000000 -s 5 -x 53.883714 -y 55.512278 -U -0.535725 -V -0.844392 -T 9.600069
n -t 7.000000 -s 7 -x 54.244161 -y 59.842973 -U 0.352711 -V -0.935732 -T 36.314189
n -t 7.000000 -s 10 -x 96.574849 -y 70.100545 -U -0.326945 -V 0.945043 -T 2.817708
n -t 7.000000 -s 10 -x 96.574849 -y 70.100545 -U -0.094221 -V 0.995551 -T 4.777421
n -t 7.000000 -s 11 -x 81.637511 -y 94.902642 -U 0.000000 -V 0.000000 -T 0.000000
n -t 7.000000 -s 9 -x 74.878788 -y 91.708068 -U 0.000000 -V 0.000000 -T 0.000000
n -t 7.000000 -s 0 -x 48.459441 -y 26.437545 -U 0.013351 -V 0.999911 -T 0.153160
n -t 7.000000 -s 6 -x 32.930183 -y 27.220876 -U 0.000000 -V 0.000000 -T 0.000000
n -t 7.000000 -s 2 -x 64.420964 -y 52.224162 -U 0.000000 -V 0.000000 -T 0.000000
n -t 7.000000 -s 8 -x 53.777300 -y 7.240392 -U 0.000000 -V 0.000000 -T 0.000000
n -t 7.000000 -s 1 -x 26.875619 -y 35.695926 -U 0.000000 -V 0.000000 -T 0.000000
n -t 7.000000 -s 5 -x 53.883714 -y 55.512278 -U 0.000000 -V 0.000000 -T 0.000000
n -t 7.000000 -s 3 -x 81.814493 -y 24.790492 -U -0.999852 -V -0.017208 -T 0.978205
n -t 7.000000 -s 4 -x 67.314090 -y 43.022020 -U 0.000000 -V 0.000000 -T 0.000000
n -t 7.000000 -s 7 -x 54.244161 -y 59.842973 -U 0.000000 -V 0.000000 -T 0.000000
n -t 8.000000 -s 10 -x 96.480628 -y 71.096096 -U -0.496257 -V 0.868176 -T 1.920470
n -t 8.000000 -s 10 -x 96.480628 -y 71.096096 -U -0.121095 -V 0.992641 -T 2.870253
n -t 8.000000 -s 11 -x 81.637511 -y 94.902642 -U 0.000000 -V 0.000000 -T 0.000000
n -t 8.000000 -s 9 -x 74.878788 -y 91.708068 -U 0.000000 -V 0.000000 -T 0.000000
n -t 8.000000 -s 6 -x 32.930183 -y 27.220876 -U 0.000000 -V 0.000000 -T 0.000000
n -t 8.000000 -s 2 -x 64.420964 -y 52.224162 -U 0.000000 -V 0.000000 -T 0.000000
n -t 8.000000 -s 8 -x 53.777300 -y 7.240392 -U 0.000000 -V 0.000000 -T 0.000000
n -t 8.000000 -s 1 -x 26.875619 -y 35.695926 -U 0.000000 -V 0.000000 -T 0.000000
n -t 8.000000 -s 5 -x 53.883714 -y 55.512278 -U 0.000000 -V 0.000000 -T 0.000000
n -t 8.000000 -s 3 -x 80.836433 -y 24.773659 -U -0.999031 -V -0.044001 -T 0.770209
n -t 8.000000 -s 4 -x 67.314090 -y 43.022020 -U 0.000000 -V 0.000000 -T 0.000000
n -t 8.000000 -s 7 -x 54.244161 -y 59.842973 -U 0.000000 -V 0.000000 -T 0.000000
n -t 9.000000 -s 10 -x 96.359533 -y 72.088737 -U -0.817594 -V 0.575795 -T 1.171710
n -t 9.000000 -s 10 -x 96.359533 -y 72.088737 -U -0.160439 -V 0.987046 -T 0.971008
n -t 9.000000 -s 11 -x 81.637511 -y 94.902642 -U 0.000000 -V 0.000000 -T 0.000000
n -t 9.000000 -s 9 -x 74.878788 -y 91.708068 -U 0.000000 -V 0.000000 -T 0.000000
n -t 9.000000 -s 6 -x 32.930183 -y 27.220876 -U 0.000000 -V 0.000000 -T 0.000000
n -t 9.000000 -s 2 -x 64.420964 -y 52.224162 -U 0.000000 -V 0.000000 -T 0.000000
n -t 9.000000 -s 8 -x 53.777300 -y 7.240392 -U 0.000000 -V 0.000000 -T 0.000000
n -t 9.000000 -s 1 -x 26.875619 -y 35.695926 -U 0.000000 -V 0.000000 -T 0.000000
n -t 9.000000 -s 5 -x 53.883714 -y 55.512278 -U 0.000000 -V 0.000000 -T 0.000000
n -t 9.000000 -s 3 -x 80.066969 -y 24.739770 -U -0.997741 -V -0.067179 -T 0.773561
n -t 9.000000 -s 4 -x 67.314090 -y 43.022020 -U 0.000000 -V 0.000000 -T 0.000000
n -t 9.000000 -s 7 -x 54.244161 -y 59.842973 -U 0.000000 -V 0.000000 -T 0.000000
n -t 10.000000 -s 11 -x 81.637511 -y 94.902642 -U 0.000000 -V 0.000000 -T 0.000000
n -t 10.000000 -s 10 -x 96.203746 -y 73.047166 -U 0.000000 -V 0.000000 -T 0.000000
n -t 10.000000 -s 9 -x 74.878788 -y 91.708068 -U 0.000000 -V 0.000000 -T 0.000000
n -t 10.000000 -s 0 -x 48.461486 -y 26.590692 -U 0.000000 -V 0.000000 -T 0.000000
n -t 10.000000 -s 6 -x 32.930183 -y 27.220876 -U 0.000000 -V 0.000000 -T 0.000000
n -t 10.000000 -s 2 -x 64.420964 -y 52.224162 -U 0.000000 -V 0.000000 -T 0.000000
n -t 10.000000 -s 8 -x 53.777300 -y 7.240392 -U 0.000000 -V 0.000000 -T 0.000000
n -t 10.000000 -s 1 -x 26.875619 -y 35.695926 -U 0.000000 -V 0.000000 -T 0.000000
n -t 10.000000 -s 5 -x 53.883714 -y 55.512278 -U 0.000000 -V 0.000000 -T 0.000000
n -t 10.000000 -s 3 -x 79.295156 -y 24.687803 -U 0.000000 -V 0.000000 -T 0.000000
n -t 10.000000 -s 4 -x 67.314090 -y 43.022020 -U 0.000000 -V 0.000000 -T 0.000000
n -t 10.000000 -s 7 -x 54.244161 -y 59.842973 -U 0.000000 -V 0.000000 -T 0.000000
n -t 10.000000 -s 11 -x 81.637511 -y 94.902642 -U -0.134855 -V -0.990865 -T 0.934574
n -t 10.000000 -s 3 -x 79.295156 -y 24.687803 -U -0.996190 -V -0.087213 -T 5.776074
n -t 10.000000 -s 0 -x 48.461486 -y 26.590692 -U 0.041806 -V 0.999126 -T 6.679066
n -t 10.000000 -s 10 -x 96.203746 -y 73.047166 -U -0.080788 -V 0.996731 -T 6.809562
n -t 10.000000 -s 8 -x 53.777300 -y 7.240392 -U 0.895019 -V 0.446029 -T 6.281047
n -t 10.000000 -s 6 -x 32.930183 -y 27.220876 -U 0.201761 -V -0.979435 -T 8.269151
n -t 10.000000 -s 2 -x 64.420964 -y 52.224162 -U -0.304116 -V -0.952635 -T 5.057664
n -t 10.000000 -s 4 -x 67.314090 -y 43.022020 -U -0.860035 -V -0.510235 -T 9.203271
n -t 10.000000 -s 1 -x 26.875619 -y 35.695926 -U 0.953824 -V -0.300365 -T 8.096837
n -t 10.000000 -s 9 -x 74.878788 -y 91.708068 -U 0.487678 -V -0.873023 -T 13.600548
n -t 10.000000 -s 5 -x 53.883714 -y 55.512278 -U -0.535725 -V -0.844392 -T 9.600069
n -t 10.000000 -s 7 -x 54.244161 -y 59.842973 -U 0.143071 -V -0.989712 -T 36.029576
n -t 10.000000 -s 11 -x 81.637511 -y 94.902642 -U 0.000000 -V 0.000000 -T 0.000000
n -t 10.000000 -s 9 -x 74.878788 -y 91.708068 -U 0.000000 -V 0.000000 -T 0.000000
n -t 10.000000 -s 6 -x 32.930183 -y 27.220876 -U 0.000000 -V 0.000000 -T 0.000000
n -t 10.000000 -s 2 -x 64.420964 -y 52.224162 -U 0.000000 -V 0.000000 -T 0.000000
n -t 10.000000 -s 1 -x 26.875619 -y 35.695926 -U 0.000000 -V 0.000000 -T 0.000000
n -t 10.000000 -s 5 -x 53.883714 -y 55.512278 -U 0.000000 -V 0.000000 -T 0.000000
n -t 10.000000 -s 3 -x 79.295156 -y 24.687803 -U -0.996190 -V -0.087213 -T 0.776074
n -t 10.000000 -s 8 -x 53.777300 -y 7.240392 -U 0.000000 -V 0.000000 -T 0.000000
n -t 10.000000 -s 4 -x 67.314090 -y 43.022020 -U 0.000000 -V 0.000000 -T 0.000000
n -t 10.000000 -s 7 -x 54.244161 -y 59.842973 -U 0.000000 -V 0.000000 -T 0.000000
n -t 11.000000 -s 11 -x 81.637511 -y 94.902642 -U 0.000000 -V 0.000000 -T 0.000000
n -t 11.000000 -s 10 -x 96.122957 -y 74.043897 -U 0.000000 -V 0.000000 -T 0.000000
n -t 11.000000 -s 9 -x 74.878788 -y 91.708068 -U 0.000000 -V 0.000000 -T 0.000000
n -t 11.000000 -s 0 -x 48.503292 -y 27.589817 -U 0.000000 -V 0.000000 -T 0.000000
n -t 11.000000 -s 6 -x 32.930183 -y 27.220876 -U 0.000000 -V 0.000000 -T 0.000000
n -t 11.000000 -s 2 -x 64.420964 -y 52.224162 -U 0.000000 -V 0.000000 -T 0.000000
n -t 11.000000 -s 1 -x 26.875619 -y 35.695926 -U 0.000000 -V 0.000000 -T 0.000000
n -t 11.000000 -s 5 -x 53.883714 -y 55.512278 -U 0.000000 -V 0.000000 -T 0.000000
n -t 11.000000 -s 3 -x 78.522038 -y 24.620119 -U 0.000000 -V 0.000000 -T 0.000000
n -t 11.000000 -s 8 -x 53.777300 -y 7.240392 -U 0.000000 -V 0.000000 -T 0.000000
n -t 11.000000 -s 4 -x 67.314090 -y 43.022020 -U 0.000000 -V 0.000000 -T 0.000000
n -t 11.000000 -s 7 -x 54.244161 -y 59.842973 -U 0.000000 -V 0.000000 -T 0.000000
n -t 11.000000 -s 0 -x 48.503292 -y 27.589817 -U -0.292772 -V -0.956182 -T 2.817725
n -t 11.000000 -s 11 -x 81.637511 -y 94.902642 -U -0.134855 -V -0.990865 -T 0.934574
n -t 11.000000 -s 3 -x 78.522038 -y 24.620119 -U -0.996190 -V -0.087213 -T 5.000000
n -t 11.000000 -s 10 -x 96.122957 -y 74.043897 -U -0.080788 -V 0.996731 -T 5.809562
n -t 11.000000 -s 6 -x 32.930183 -y 27.220876 -U 0.252196 -V -0.967676 -T 2.402992
n -t 11.000000 -s 8 -x 53.777300 -y 7.240392 -U -0.866530 -V 0.499126 -T 7.038371
n -t 11.000000 -s 4 -x 67.314090 -y 43.022020 -U -0.860035 -V -0.510235 -T 9.203271
n -t 11.000000 -s 1 -x 26.875619 -y 35.695926 -U 0.893810 -V 0.448445 -T 7.451903
n -t 11.000000 -s 9 -x 74.878788 -y 91.708068 -U 0.487678 -V -0.873023 -T 13.600548
n -t 11.000000 -s 2 -x 64.420964 -y 52.224162 -U -0.176296 -V -0.984337 -T 28.486281
n -t 11.000000 -s 7 -x 54.244161 -y 59.842973 -U 0.990170 -V 0.139868 -T 41.820543
n -t 11.000000 -s 5 -x 53.883714 -y 55.512278 -U 0.938328 -V 0.345747 -T 29.443622
n -t 11.000000 -s 11 -x 81.637511 -y 94.902642 -U 0.000000 -V 0.000000 -T 0.000000
n -t 11.000000 -s 9 -x 74.878788 -y 91.708068 -U 0.000000 -V 0.000000 -T 0.000000
n -t 11.000000 -s 7 -x 54.244161 -y 59.842973 -U 0.000000 -V 0.000000 -T 0.000000
n -t 11.000000 -s 5 -x 53.883714 -y 55.512278 -U 0.000000 -V 0.000000 -T 0.000000
n -t 11.000000 -s 8 -x 53.777300 -y 7.240392 -U -0.499277 -V 0.866442 -T 12.215581
n -t 11.000000 -s 6 -x 32.930183 -y 27.220876 -U 0.000000 -V 0.000000 -T 0.000000
n -t 11.000000 -s 8 -x 53.777300 -y 7.240392 -U 0.000000 -V 0.000000 -T 0.000000
n -t 11.000000 -s 1 -x 26.875619 -y 35.695926 -U 0.000000 -V 0.000000 -T 0.000000
n -t 11.000000 -s 3 -x 78.522038 -y 24.620119 -U -0.994523 -V -0.104521 -T 0.777957
n -t 11.000000 -s 4 -x 67.314090 -y 43.022020 -U 0.000000 -V 0.000000 -T 0.000000
n -t 11.000000 -s 2 -x 64.420964 -y 52.224162 -U 0.000000 -V 0.000000 -T 0.000000
n -t 12.000000 -s 11 -x 81.637511 -y 94.902642 -U 0.000000 -V 0.000000 -T 0.000000
n -t 12.000000 -s 9 -x 74.878788 -y 91.708068 -U 0.000000 -V 0.000000 -T 0.000000
n -t 12.000000 -s 7 -x 54.244161 -y 59.842973 -U 0.000000 -V 0.000000 -T 0.000000
n -t 12.000000 -s 5 -x 53.883714 -y 55.512278 -U 0.000000 -V 0.000000 -T 0.000000
n -t 12.000000 -s 8 -x 53.777300 -y 7.240392 -U -0.512165 -V 0.858887 -T 12.323040
n -t 12.000000 -s 6 -x 32.930183 -y 27.220876 -U 0.000000 -V 0.000000 -T 0.000000