n -t * -s 0  -x 90.015050000000002 -y 98.709320000000005 -Z 0 -z 1  -v circle -c black
n -t * -s 1  -x 95.651259999999994 -y 324.85680000000002 -Z 0 -z 1  -v circle -c black
n -t * -s 2  -x 125.2726 -y 9.0852430000000002 -Z 0 -z 1  -v circle -c black
n -t * -s 3  -x 26.213159999999998 -y 281.43920000000003 -Z 0 -z 1  -v circle -c black
n -t * -s 4  -x 432.37490000000003 -y 97.520099999999999 -Z 0 -z 1  -v circle -c black
n -t * -s 5  -x 82.856890000000007 -y 159.9212 -Z 0 -z 1  -v circle -c black
n -t * -s 6  -x 207.5977 -y 391.04149999999998 -Z 0 -z 1  -v circle -c black
n -t * -s 7  -x 101.1071 -y 226.90880000000001 -Z 0 -z 1  -v circle -c black
n -t * -s 8  -x 142.42310000000001 -y 446.07130000000001 -Z 0 -z 1  -v circle -c black
n -t * -s 9  -x 26.652850000000001 -y 139.4203 -Z 0 -z 1  -v circle -c black
n -t * -s 10  -x 467.47329999999999 -y 316.45299999999997 -Z 0 -z 1  -v circle -c black
n -t * -s 11  -x 284.63630000000001 -y 291.45159999999998 -Z 0 -z 1  -v circle -c black
n -t * -s 12  -x 143.18629999999999 -y 287.52030000000002 -Z 0 -z 1  -v circle -c black
n -t * -s 13  -x 482.06529999999998 -y 499.71980000000002 -Z 0 -z 1  -v circle -c black
n -t * -s 14  -x 492.76049999999998 -y 22.403390000000002 -Z 0 -z 1  -v circle -c black
n -t * -s 15  -x 232.6944 -y 359.21609999999998 -Z 0 -z 1  -v circle -c black
n -t * -s 16  -x 121.3128 -y 29.94875 -Z 0 -z 1  -v circle -c black
n -t * -s 17  -x 176.65960000000001 -y 232.27930000000001 -Z 0 -z 1  -v circle -c black
n -t * -s 18  -x 98.083680000000001 -y 205.09389999999999 -Z 0 -z 1  -v circle -c black
n -t * -s 19  -x 348.678 -y 80.505719999999997 -Z 0 -z 1  -v circle -c black
n -t * -s 20  -x 60.165799999999997 -y 4.3860919999999997 -Z 0 -z 2  -v circle -c black
V -t * -v 1.0a5 -a 0
W -t * -x 500 -y 500
A -t * -n 1 -p 0 -o 0x7fffffff -c 30 -a 1
A -t * -h 1 -m 1073741823 -s 0
n -t 0 -s 20 -S COLOR -c red -o black -i red -I black
n -t 0.000000 -s 20 -x 60.165800 -y 4.386092 -U 1.673115 -V 2.923200 -T 79.711133
n -t 12.000000 -s 16 -x 121.312800 -y 29.948750 -U -0.974193 -V 0.225718 -T 42.157597
n -t 13.000000 -s 16 -x 120.338607 -y 30.174468 -U 0.000000 -V 0.000000 -T 0.000000
n -t 13.000000 -s 16 -x 120.338607 -y 30.174468 -U -0.953012 -V 0.302932 -T 40.316708
n -t 14.000000 -s 16 -x 119.385595 -y 30.477401 -U 0.000000 -V 0.000000 -T 0.000000
n -t 14.000000 -s 16 -x 119.385595 -y 30.477401 -U -0.923823 -V 0.382821 -T 38.747895
n -t 15.000000 -s 16 -x 118.461773 -y 30.860221 -U 0.000000 -V 0.000000 -T 0.000000
n -t 15.000000 -s 16 -x 118.461773 -y 30.860221 -U -0.886009 -V 0.463668 -T 37.470542
n -t 16.000000 -s 16 -x 117.575763 -y 31.323889 -U 0.000000 -V 0.000000 -T 0.000000
n -t 16.000000 -s 16 -x 117.575763 -y 31.323889 -U -0.839477 -V 0.543395 -T 36.499057
n -t 17.000000 -s 16 -x 116.736286 -y 31.867284 -U 0.000000 -V 0.000000 -T 0.000000
n -t 17.000000 -s 16 -x 116.736286 -y 31.867284 -U -0.784784 -V 0.619769 -T 35.841104
n -t 18.000000 -s 16 -x 115.951502 -y 32.487053 -U 0.000000 -V 0.000000 -T 0.000000
n -t 18.000000 -s 16 -x 115.951502 -y 32.487053 -U -0.723161 -V 0.690679 -T 35.496419
n -t 18.000000 -s 0 -x 90.015050 -y 98.709320 -U 0.463274 -V -0.886215 -T 31.102473
n -t 19.000000 -s 16 -x 115.228341 -y 33.177733 -U 0.000000 -V 0.000000 -T 0.000000
n -t 19.000000 -s 0 -x 90.478324 -y 97.823105 -U 0.000000 -V 0.000000 -T 0.000000
n -t 19.000000 -s 16 -x 115.228341 -y 33.177733 -U -0.656391 -V 0.754421 -T 35.456549
n -t 19.000000 -s 0 -x 90.478324 -y 97.823105 -U 0.549398 -V -0.835560 -T 28.428907
n -t 20.000000 -s 16 -x 114.571950 -y 33.932154 -U 0.000000 -V 0.000000 -T 0.000000
n -t 20.000000 -s 0 -x 91.027722 -y 96.987544 -U 0.000000 -V 0.000000 -T 0.000000
n -t 20.000000 -s 0 -x 91.027722 -y 96.987544 -U 0.075954 -V -0.997111 -T 34.236343
n -t 20.000000 -s 16 -x 114.571950 -y 33.932154 -U -0.156024 -V 0.987753 -T 43.593965
n -t 21.000000 -s 0 -x 91.103676 -y 95.990433 -U 0.000000 -V 0.000000 -T 0.000000
n -t 21.000000 -s 16 -x 114.415926 -y 34.919907 -U 0.000000 -V 0.000000 -T 0.000000
n -t 21.000000 -s 0 -x 91.103676 -y 95.990433 -U 0.137591 -V -0.990489 -T 30.507287
n -t 21.000000 -s 16 -x 114.415926 -y 34.919907 -U -0.109844 -V 0.993949 -T 45.269460
n -t 22.000000 -s 0 -x 91.241267 -y 94.999944 -U 0.000000 -V 0.000000 -T 0.000000
n -t 22.000000 -s 16 -x 114.306082 -y 35.913856 -U 0.000000 -V 0.000000 -T 0.000000
n -t 22.000000 -s 0 -x 91.241267 -y 94.999944 -U 0.212959 -V -0.977061 -T 26.920982
n -t 22.000000 -s 16 -x 114.306082 -y 35.913856 -U -0.067816 -V 0.997698 -T 47.033058
n -t 23.000000 -s 0 -x 91.454226 -y 94.022883 -U 0.000000 -V 0.000000 -T 0.000000
n -t 23.000000 -s 16 -x 114.238266 -y 36.911553 -U 0.000000 -V 0.000000 -T 0.000000
n -t 23.000000 -s 0 -x 91.454226 -y 94.022883 -U 0.305709 -V -0.952125 -T 23.529663
n -t 23.000000 -s 16 -x 114.238266 -y 36.911553 -U -0.029643 -V 0.999561 -T 48.871757
n -t 24.000000 -s 0 -x 91.759935 -y 93.070758 -U 0.000000 -V 0.000000 -T 0.000000
n -t 24.000000 -s 16 -x 114.208623 -y 37.911114 -U 0.000000 -V 0.000000 -T 0.000000
n -t 24.000000 -s 0 -x 91.759935 -y 93.070758 -U 0.419434 -V -0.907786 -T 20.409945
n -t 24.000000 -s 16 -x 114.208623 -y 37.911114 -U 0.005004 -V 0.999987 -T 50.774557
n -t 25.000000 -s 0 -x 92.179369 -y 92.162972 -U 0.000000 -V 0.000000 -T 0.000000
n -t 25.000000 -s 16 -x 114.213627 -y 38.911101 -U 0.000000 -V 0.000000 -T 0.000000
n -t 25.000000 -s 0 -x 92.179369 -y 92.162972 -U 0.555342 -V -0.831622 -T 17.672541
n -t 25.000000 -s 16 -x 114.213627 -y 38.911101 -U 0.036452 -V 0.999335 -T 52.732179
n -t 26.000000 -s 0 -x 92.734711 -y 91.331350 -U 0.000000 -V 0.000000 -T 0.000000
n -t 26.000000 -s 16 -x 114.250079 -y 39.910437 -U 0.000000 -V 0.000000 -T 0.000000
n -t 26.000000 -s 0 -x 92.734711 -y 91.331350 -U 0.706784 -V -0.707429 -T 15.467348
n -t 26.000000 -s 16 -x 114.250079 -y 39.910437 -U 0.065017 -V 0.997884 -T 54.736815
n -t 27.000000 -s 0 -x 93.441496 -y 90.623921 -U 0.000000 -V 0.000000 -T 0.000000
n -t 27.000000 -s 16 -x 114.315096 -y 40.908321 -U 0.000000 -V 0.000000 -T 0.000000
n -t 27.000000 -s 0 -x 93.441496 -y 90.623921 -U 0.851999 -V -0.523543 -T 13.965281
n -t 28.000000 -s 0 -x 94.293495 -y 90.100378 -U 0.000000 -V 0.000000 -T 0.000000
n -t 28.000000 -s 0 -x 94.293495 -y 90.100378 -U 0.956810 -V -0.290715 -T 13.293687
n -t 29.000000 -s 0 -x 95.250305 -y 89.809663 -U 0.000000 -V 0.000000 -T 0.000000
n -t 29.000000 -s 0 -x 95.250305 -y 89.809663 -U 0.998829 -V -0.048378 -T 13.451584
n -t 30.000000 -s 0 -x 96.249134 -y 89.761285 -U 0.000000 -V 0.000000 -T 0.000000
n -t 30.000000 -s 0 -x 96.249134 -y 89.761285 -U 0.986742 -V 0.162298 -T 14.299708
n -t 31.000000 -s 0 -x 97.235876 -y 89.923583 -U 0.000000 -V 0.000000 -T 0.000000
n -t 31.000000 -s 0 -x 97.235876 -y 89.923583 -U 0.945776 -V 0.324818 -T 15.644809
n -t 32.000000 -s 0 -x 98.181652 -y 90.248401 -U 0.000000 -V 0.000000 -T 0.000000
n -t 32.000000 -s 0 -x 98.181652 -y 90.248401 -U 0.896309 -V 0.443431 -T 17.319737
n -t 33.000000 -s 0 -x 99.077961 -y 90.691832 -U 0.000000 -V 0.000000 -T 0.000000
n -t 33.000000 -s 0 -x 99.077961 -y 90.691832 -U 0.848653 -V 0.528949 -T 19.207648
n -t 34.000000 -s 0 -x 99.926614 -y 91.220781 -U 0.000000 -V 0.000000 -T 0.000000
n -t 34.000000 -s 0 -x 99.926614 -y 91.220781 -U 0.806501 -V 0.591232 -T 21.233817
n -t 35.000000 -s 0 -x 100.733116 -y 91.812014 -U 0.000000 -V 0.000000 -T 0.000000
n -t 35.000000 -s 0 -x 100.733116 -y 91.812014 -U 0.770470 -V 0.637476 -T 23.351604
n -t 36.000000 -s 0 -x 101.503586 -y 92.449490 -U 0.000000 -V 0.000000 -T 0.000000
n -t 36.000000 -s 0 -x 101.503586 -y 92.449490 -U 0.740035 -V 0.672568 -T 25.531705
n -t 37.000000 -s 0 -x 102.243621 -y 93.122058 -U 0.000000 -V 0.000000 -T 0.000000
n -t 37.000000 -s 0 -x 102.243621 -y 93.122058 -U 0.714365 -V 0.699773 -T 27.755336
n -t 38.000000 -s 0 -x 102.957986 -y 93.821831 -U 0.000000 -V 0.000000 -T 0.000000
n -t 38.000000 -s 0 -x 102.957986 -y 93.821831 -U 0.692638 -V 0.721285 -T 30.010155
n -t 39.000000 -s 0 -x 103.650624 -y 94.543116 -U 0.000000 -V 0.000000 -T 0.000000
n -t 39.000000 -s 0 -x 103.650624 -y 94.543116 -U 0.674144 -V 0.738600 -T 32.287841
n -t 40.000000 -s 0 -x 104.324769 -y 95.281716 -U 0.000000 -V 0.000000 -T 0.000000
n -t 40.000000 -s 0 -x 104.324769 -y 95.281716 -U 0.658297 -V 0.752759 -T 34.582646
n -t 41.000000 -s 0 -x 104.983065 -y 96.034475 -U 0.000000 -V 0.000000 -T 0.000000
n -t 41.000000 -s 0 -x 104.983065 -y 96.034475 -U 0.644623 -V 0.764501 -T 36.890509
n -t 42.000000 -s 0 -x 105.627688 -y 96.798976 -U 0.000000 -V 0.000000 -T 0.000000
n -t 42.000000 -s 0 -x 105.627688 -y 96.798976 -U 0.632744 -V 0.774361 -T 39.208498
n -t 43.000000 -s 0 -x 106.260432 -y 97.573336 -U 0.000000 -V 0.000000 -T 0.000000
n -t 43.000000 -s 0 -x 106.260432 -y 97.573336 -U 0.622358 -V 0.782732 -T 41.534459
n -t 44.000000 -s 0 -x 106.882790 -y 98.356069 -U 0.000000 -V 0.000000 -T 0.000000
n -t 64.000000 -s 17 -x 176.659600 -y 232.279300 -U -0.224794 -V -0.974406 -T 41.880259
n -t 65.000000 -s 17 -x 176.434806 -y 231.304894 -U 0.000000 -V 0.000000 -T 0.000000
n -t 65.000000 -s 17 -x 176.434806 -y 231.304894 -U -0.199545 -V -0.979889 -T 37.668341
n -t 66.000000 -s 17 -x 176.235261 -y 230.325005 -U 0.000000 -V 0.000000 -T 0.000000
n -t 66.000000 -s 17 -x 176.235261 -y 230.325005 -U -0.168540 -V -0.985695 -T 33.486728
n -t 67.000000 -s 17 -x 176.066721 -y 229.339310 -U 0.000000 -V 0.000000 -T 0.000000
n -t 67.000000 -s 17 -x 176.066721 -y 229.339310 -U -0.129564 -V -0.991571 -T 29.346155
n -t 68.000000 -s 17 -x 175.937157 -y 228.347739 -U 0.000000 -V 0.000000 -T 0.000000
n -t 68.000000 -s 17 -x 175.937157 -y 228.347739 -U -0.079148 -V -0.996863 -T 25.263279
n -t 69.000000 -s 17 -x 175.858009 -y 227.350876 -U 0.000000 -V 0.000000 -T 0.000000
n -t 69.000000 -s 17 -x 175.858009 -y 227.350876 -U -0.011628 -V -0.999932 -T 21.265400
n -t 70.000000 -s 17 -x 175.846381 -y 226.350944 -U 0.000000 -V 0.000000 -T 0.000000
n -t 70.000000 -s 17 -x 175.846381 -y 226.350944 -U 0.082612 -V -0.996582 -T 17.400308
n -t 71.000000 -s 17 -x 175.928993 -y 225.354362 -U 0.000000 -V 0.000000 -T 0.000000
n -t 71.000000 -s 17 -x 175.928993 -y 225.354362 -U 0.220082 -V -0.975481 -T 13.758386
n -t 72.000000 -s 17 -x 176.149076 -y 224.378881 -U 0.000000 -V 0.000000 -T 0.000000
n -t 72.000000 -s 17 -x 176.149076 -y 224.378881 -U 0.425789 -V -0.904822 -T 10.524017
n -t 73.000000 -s 17 -x 176.574865 -y 223.474058 -U 0.000000 -V 0.000000 -T 0.000000
n -t 73.000000 -s 17 -x 176.574865 -y 223.474058 -U 0.709208 -V -0.704999 -T 8.077091
n -t 76.000000 -s 17 -x 178.702489 -y 221.359061 -U 0.000000 -V 0.000000 -T 0.000000
n -t 76.000000 -s 17 -x 178.702489 -y 221.359061 -U 0.856693 -V 0.515827 -T 10.062016
n -t 77.000000 -s 17 -x 179.559182 -y 221.874887 -U 0.000000 -V 0.000000 -T 0.000000
n -t 77.000000 -s 17 -x 179.559182 -y 221.874887 -U 0.778914 -V 0.627130 -T 12.114914
n -t 78.000000 -s 17 -x 180.338096 -y 222.502017 -U 0.000000 -V 0.000000 -T 0.000000
n -t 78.000000 -s 17 -x 180.338096 -y 222.502017 -U 0.722216 -V 0.691667 -T 14.304135
n -t 79.000000 -s 17 -x 181.060313 -y 223.193684 -U 0.000000 -V 0.000000 -T 0.000000
n -t 79.000000 -s 17 -x 181.060313 -y 223.193684 -U 0.681178 -V 0.732118 -T 16.561863
n -t 80.000000 -s 17 -x 181.741491 -y 223.925802 -U 0.000000 -V 0.000000 -T 0.000000
n -t 80.000000 -s 17 -x 181.741491 -y 223.925802 -U 0.658577 -V 0.752513 -T 17.902543
n -t 81.000000 -s 17 -x 182.400068 -y 224.678315 -U 0.000000 -V 0.000000 -T 0.000000
n -t 81.000000 -s 17 -x 182.400068 -y 224.678315 -U 0.658577 -V 0.752513 -T 16.902543
n -t 82.000000 -s 17 -x 183.058646 -y 225.430828 -U 0.000000 -V 0.000000 -T 0.000000
n -t 82.000000 -s 17 -x 183.058646 -y 225.430828 -U 0.658577 -V 0.752513 -T 15.902543
n -t 83.000000 -s 17 -x 183.717223 -y 226.183341 -U 0.000000 -V 0.000000 -T 0.000000
n -t 83.000000 -s 17 -x 183.717223 -y 226.183341 -U 0.658577 -V 0.752513 -T 14.902543
n -t 84.000000 -s 17 -x 184.375800 -y 226.935854 -U 0.000000 -V 0.000000 -T 0.000000
n -t 84.000000 -s 17 -x 184.375800 -y 226.935854 -U 0.658577 -V 0.752513 -T 13.902543
n -t 85.000000 -s 17 -x 185.034378 -y 227.688367 -U 0.000000 -V 0.000000 -T 0.000000
n -t 85.000000 -s 17 -x 185.034378 -y 227.688367 -U 0.658577 -V 0.752513 -T 12.902543
n -t 86.000000 -s 17 -x 185.692955 -y 228.440880 -U 0.000000 -V 0.000000 -T 0.000000
n -t 86.000000 -s 17 -x 185.692955 -y 228.440880 -U 0.658577 -V 0.752513 -T 11.902543
n -t 87.000000 -s 17 -x 186.351532 -y 229.193394 -U 0.000000 -V 0.000000 -T 0.000000
n -t 87.000000 -s 17 -x 186.351532 -y 229.193394 -U 0.658577 -V 0.752513 -T 10.902543
n -t 88.000000 -s 17 -x 187.010110 -y 229.945907 -U 0.000000 -V 0.000000 -T 0.000000
n -t 88.000000 -s 17 -x 187.010110 -y 229.945907 -U 0.658577 -V 0.752513 -T 9.902543
