n -t * -s 0  -x 8.7439119999999999 -y 38.593539999999997 -Z 0 -z 1  -v circle -c black
n -t * -s 1  -x 31.47739 -y 97.931120000000007 -Z 0 -z 1  -v circle -c black
n -t * -s 2  -x 99.225309999999993 -y 75.045410000000004 -Z 0 -z 1  -v circle -c black
n -t * -s 3  -x 51.76549 -y 70.549130000000005 -Z 0 -z 1  -v circle -c black
n -t * -s 4  -x 61.991239999999998 -y 95.734780000000001 -Z 0 -z 1  -v circle -c black
n -t * -s 5  -x 53.879480000000001 -y 75.148859999999999 -Z 0 -z 1  -v circle -c black
n -t * -s 6  -x 50.91798 -y 82.543170000000003 -Z 0 -z 1  -v circle -c black
n -t * -s 7  -x 65.326179999999994 -y 28.42285 -Z 0 -z 1  -v circle -c black
n -t * -s 8  -x 66.822569999999999 -y 24.996839999999999 -Z 0 -z 1  -v circle -c black
n -t * -s 9  -x 25.596340000000001 -y 0.02044253 -Z 0 -z 1  -v circle -c black
n -t * -s 10  -x 42.860720000000001 -y 81.665310000000005 -Z 0 -z 2  -v circle -c black
V -t * -v 1.0a5 -a 0
W -t * -x 100 -y 100
A -t * -n 1 -p 0 -o 0x7fffffff -c 30 -a 1
A -t * -h 1 -m 1073741823 -s 0
n -t 0 -s 10 -S COLOR -c red -o black -i red -I black
n -t 0.000000 -s 10 -x 42.860720 -y 81.665310 -U -0.740580 -V -2.865733 -T 15.466065
n -t 0.000000 -s 6 -x 50.917980 -y 82.543170 -U -0.994117 -V -0.108312 -T 8.104942
n -t 0.000000 -s 3 -x 51.765490 -y 70.549130 -U -0.946827 -V -0.321744 -T 9.404857
n -t 0.000000 -s 5 -x 53.879480 -y 75.148860 -U 0.379025 -V -0.925386 -T 8.240543
n -t 0.000000 -s 4 -x 61.991240 -y 95.734780 -U -0.334171 -V -0.942512 -T 14.927624
n -t 0.000000 -s 6 -x 50.917980 -y 82.543170 -U -0.994117 -V -0.108312 -T 3.104942
n -t 0.000000 -s 3 -x 51.765490 -y 70.549130 -U 0.000000 -V 0.000000 -T 0.000000
n -t 0.000000 -s 5 -x 53.879480 -y 75.148860 -U 0.000000 -V 0.000000 -T 0.000000
n -t 0.000000 -s 4 -x 61.991240 -y 95.734780 -U 0.000000 -V 0.000000 -T 0.000000
n -t 1.000000 -s 6 -x 49.923863 -y 82.434858 -U -0.906470 -V -0.422270 -T 3.608912
n -t 1.000000 -s 3 -x 51.765490 -y 70.549130 -U 0.000000 -V 0.000000 -T 0.000000
n -t 1.000000 -s 5 -x 53.879480 -y 75.148860 -U 0.000000 -V 0.000000 -T 0.000000
n -t 1.000000 -s 4 -x 61.991240 -y 95.734780 -U 0.000000 -V 0.000000 -T 0.000000
n -t 2.000000 -s 6 -x 49.017393 -y 82.012589 -U -0.782442 -V -0.622724 -T 4.761538
n -t 2.000000 -s 3 -x 51.765490 -y 70.549130 -U 0.000000 -V 0.000000 -T 0.000000
n -t 2.000000 -s 5 -x 53.879480 -y 75.148860 -U 0.000000 -V 0.000000 -T 0.000000
n -t 2.000000 -s 4 -x 61.991240 -y 95.734780 -U 0.000000 -V 0.000000 -T 0.000000
n -t 3.000000 -s 6 -x 48.234951 -y 81.389865 -U 0.000000 -V 0.000000 -T 0.000000
n -t 3.000000 -s 3 -x 51.765490 -y 70.549130 -U 0.000000 -V 0.000000 -T 0.000000
n -t 3.000000 -s 5 -x 53.879480 -y 75.148860 -U 0.000000 -V 0.000000 -T 0.000000
n -t 3.000000 -s 4 -x 61.991240 -y 95.734780 -U 0.000000 -V 0.000000 -T 0.000000
n -t 3.000000 -s 6 -x 48.234951 -y 81.389865 -U -0.674165 -V -0.738581 -T 11.267225
n -t 3.000000 -s 3 -x 51.765490 -y 70.549130 -U -0.908496 -V -0.417893 -T 27.813705
n -t 3.000000 -s 5 -x 53.879480 -y 75.148860 -U 0.397599 -V -0.917559 -T 2.267699
n -t 3.000000 -s 6 -x 48.234951 -y 81.389865 -U -0.674165 -V -0.738581 -T 6.267225
n -t 4.000000 -s 6 -x 47.560786 -y 80.651284 -U 0.000000 -V 0.000000 -T 0.000000
n -t 4.000000 -s 3 -x 50.856994 -y 70.131237 -U 0.000000 -V 0.000000 -T 0.000000
n -t 4.000000 -s 5 -x 54.277079 -y 74.231301 -U 0.000000 -V 0.000000 -T 0.000000
n -t 4.000000 -s 3 -x 50.856994 -y 70.131237 -U -0.999979 -V 0.006492 -T 10.958825
n -t 4.000000 -s 6 -x 47.560786 -y 80.651284 -U -0.663442 -V -0.748227 -T 32.865734
n -t 4.000000 -s 5 -x 54.277079 -y 74.231301 -U -0.058611 -V -0.998281 -T 4.035860
n -t 4.000000 -s 3 -x 50.856994 -y 70.131237 -U -0.999979 -V 0.006492 -T 5.958825
n -t 5.000000 -s 3 -x 49.857015 -y 70.137729 -U 0.000000 -V 0.000000 -T 0.000000
n -t 5.000000 -s 6 -x 46.897344 -y 79.903057 -U 0.000000 -V 0.000000 -T 0.000000
n -t 5.000000 -s 5 -x 54.218469 -y 73.233020 -U 0.000000 -V 0.000000 -T 0.000000
n -t 5.000000 -s 3 -x 49.857015 -y 70.137729 -U -0.967396 -V -0.253267 -T 11.059785
n -t 5.000000 -s 0 -x 8.743912 -y 38.593540 -U 0.744286 -V 0.667862 -T 21.862271
n -t 5.000000 -s 5 -x 54.218469 -y 73.233020 -U -0.153920 -V -0.988083 -T 5.967486
n -t 5.000000 -s 6 -x 46.897344 -y 79.903057 -U -0.867172 -V -0.498008 -T 25.233345
n -t 5.000000 -s 3 -x 49.857015 -y 70.137729 -U -0.967396 -V -0.253267 -T 6.059785
n -t 6.000000 -s 3 -x 48.889619 -y 69.884461 -U 0.000000 -V 0.000000 -T 0.000000
n -t 6.000000 -s 0 -x 9.488198 -y 39.261402 -U 0.000000 -V 0.000000 -T 0.000000
n -t 6.000000 -s 5 -x 54.064549 -y 72.244936 -U 0.000000 -V 0.000000 -T 0.000000
n -t 6.000000 -s 6 -x 46.030171 -y 79.405049 -U 0.000000 -V 0.000000 -T 0.000000
n -t 6.000000 -s 0 -x 9.488198 -y 39.261402 -U 0.800592 -V 0.599210 -T 18.469959
n -t 6.000000 -s 3 -x 48.889619 -y 69.884461 -U -0.976658 -V -0.214800 -T 25.202794
n -t 6.000000 -s 3 -x 48.889619 -y 69.884461 -U -0.888328 -V -0.459209 -T 6.788861
n -t 7.000000 -s 0 -x 10.288790 -y 39.860611 -U 0.000000 -V 0.000000 -T 0.000000
n -t 7.000000 -s 3 -x 48.001290 -y 69.425252 -U 0.000000 -V 0.000000 -T 0.000000
n -t 7.000000 -s 0 -x 10.288790 -y 39.860611 -U 0.867298 -V 0.497789 -T 15.272408
n -t 7.000000 -s 3 -x 48.001290 -y 69.425252 -U -0.952529 -V -0.304448 -T 25.686109
n -t 7.000000 -s 3 -x 48.001290 -y 69.425252 -U -0.797152 -V -0.603778 -T 7.951893
n -t 8.000000 -s 0 -x 11.156088 -y 40.358400 -U 0.000000 -V 0.000000 -T 0.000000
n -t 8.000000 -s 3 -x 47.204138 -y 68.821474 -U 0.000000 -V 0.000000 -T 0.000000
n -t 8.000000 -s 0 -x 11.156088 -y 40.358400 -U 0.939613 -V 0.342240 -T 12.385800
n -t 8.000000 -s 3 -x 47.204138 -y 68.821474 -U -0.924267 -V -0.381746 -T 26.410317
n -t 8.000000 -s 3 -x 47.204138 -y 68.821474 -U -0.713541 -V -0.700613 -T 9.390285
n -t 9.000000 -s 0 -x 12.095701 -y 40.700639 -U 0.000000 -V 0.000000 -T 0.000000
n -t 9.000000 -s 3 -x 46.490597 -y 68.120861 -U 0.000000 -V 0.000000 -T 0.000000
n -t 9.000000 -s 0 -x 12.095701 -y 40.700639 -U 0.994683 -V 0.102982 -T 10.010888
n -t 9.000000 -s 3 -x 46.490597 -y 68.120861 -U -0.894009 -V -0.448048 -T 27.334428
n -t 9.000000 -s 3 -x 46.490597 -y 68.120861 -U -0.643467 -V -0.765474 -T 10.999426
n -t 10.000000 -s 0 -x 13.090384 -y 40.803621 -U 0.000000 -V 0.000000 -T 0.000000
n -t 10.000000 -s 3 -x 45.847130 -y 67.355387 -U 0.000000 -V 0.000000 -T 0.000000
n -t 10.000000 -s 0 -x 13.090384 -y 40.803621 -U 0.973335 -V -0.229386 -T 8.447652
n -t 10.000000 -s 3 -x 45.847130 -y 67.355387 -U -0.863232 -V -0.504808 -T 28.421510
n -t 10.000000 -s 3 -x 45.847130 -y 67.355387 -U -0.586610 -V -0.809869 -T 12.715702
n -t 11.000000 -s 0 -x 14.063719 -y 40.574235 -U 0.000000 -V 0.000000 -T 0.000000
n -t 11.000000 -s 3 -x 45.260520 -y 66.545517 -U 0.000000 -V 0.000000 -T 0.000000
n -t 11.000000 -s 3 -x 45.260520 -y 66.545517 -U -0.540802 -V -0.841150 -T 19.501004
n -t 11.000000 -s 0 -x 14.063719 -y 40.574235 -U 0.976336 -V -0.216259 -T 21.151139
n -t 11.000000 -s 7 -x 65.326180 -y 28.422850 -U -0.985968 -V 0.166934 -T 45.390895
n -t 11.000000 -s 6 -x 46.030171 -y 79.405049 -U -0.656356 -V -0.754452 -T 38.786848
n -t 11.000000 -s 3 -x 45.260520 -y 66.545517 -U -0.540802 -V -0.841150 -T 14.501004
n -t 12.000000 -s 3 -x 44.719718 -y 65.704367 -U 0.000000 -V 0.000000 -T 0.000000
n -t 12.000000 -s 0 -x 15.040056 -y 40.357976 -U 0.000000 -V 0.000000 -T 0.000000
n -t 12.000000 -s 7 -x 64.340212 -y 28.589784 -U 0.000000 -V 0.000000 -T 0.000000
n -t 12.000000 -s 6 -x 45.373815 -y 78.650597 -U 0.000000 -V 0.000000 -T 0.000000
n -t 12.000000 -s 0 -x 15.040056 -y 40.357976 -U 0.939258 -V 0.343213 -T 20.158157
n -t 12.000000 -s 7 -x 64.340212 -y 28.589784 -U -0.988986 -V 0.148010 -T 30.704639
n -t 12.000000 -s 8 -x 66.822570 -y 24.996840 -U -0.916995 -V 0.398899 -T 20.399982
n -t 12.000000 -s 3 -x 44.719718 -y 65.704367 -U -0.607167 -V -0.794574 -T 40.990503
n -t 12.000000 -s 6 -x 45.373815 -y 78.650597 -U -0.631348 -V -0.775500 -T 40.456601
n -t 12.000000 -s 0 -x 15.040056 -y 40.357976 -U 0.939258 -V 0.343213 -T 15.158157
n -t 13.000000 -s 0 -x 15.979313 -y 40.701189 -U 0.000000 -V 0.000000 -T 0.000000
n -t 13.000000 -s 7 -x 63.351226 -y 28.737794 -U 0.000000 -V 0.000000 -T 0.000000
n -t 13.000000 -s 8 -x 65.905575 -y 25.395739 -U 0.000000 -V 0.000000 -T 0.000000
n -t 13.000000 -s 3 -x 44.112551 -y 64.909793 -U 0.000000 -V 0.000000 -T 0.000000
n -t 13.000000 -s 6 -x 44.742468 -y 77.875097 -U 0.000000 -V 0.000000 -T 0.000000
n -t 13.000000 -s 0 -x 15.979313 -y 40.701189 -U 0.977659 -V 0.210197 -T 17.648143
n -t 13.000000 -s 7 -x 63.351226 -y 28.737794 -U -0.998711 -V 0.050763 -T 30.156928
n -t 13.000000 -s 8 -x 65.905575 -y 25.395739 -U -0.967119 -V 0.254324 -T 19.160266
n -t 13.000000 -s 3 -x 44.112551 -y 64.909793 -U -0.773550 -V -0.633735 -T 32.346333
n -t 13.000000 -s 0 -x 15.979313 -y 40.701189 -U 0.977659 -V 0.210197 -T 12.648143
n -t 14.000000 -s 0 -x 16.956972 -y 40.911386 -U 0.000000 -V 0.000000 -T 0.000000
n -t 14.000000 -s 7 -x 62.352515 -y 28.788557 -U 0.000000 -V 0.000000 -T 0.000000
n -t 14.000000 -s 8 -x 64.938456 -y 25.650063 -U 0.000000 -V 0.000000 -T 0.000000
n -t 14.000000 -s 3 -x 43.339001 -y 64.276058 -U 0.000000 -V 0.000000 -T 0.000000
n -t 14.000000 -s 0 -x 16.956972 -y 40.911386 -U 0.999169 -V 0.040754 -T 15.548544
n -t 14.000000 -s 7 -x 62.352515 -y 28.788557 -U -0.996137 -V -0.087817 -T 15.778740
n -t 14.000000 -s 3 -x 43.339001 -y 64.276058 -U -0.739731 -V -0.672902 -T 33.780553
n -t 14.000000 -s 0 -x 16.956972 -y 40.911386 -U 0.999169 -V 0.040754 -T 10.548544
n -t 15.000000 -s 0 -x 17.956141 -y 40.952140 -U 0.000000 -V 0.000000 -T 0.000000
n -t 15.000000 -s 7 -x 61.356379 -y 28.700740 -U 0.000000 -V 0.000000 -T 0.000000
n -t 15.000000 -s 3 -x 42.599269 -y 63.603156 -U 0.000000 -V 0.000000 -T 0.000000
n -t 15.000000 -s 0 -x 17.956141 -y 40.952140 -U 0.986699 -V -0.162555 -T 13.981843
n -t 15.000000 -s 7 -x 61.356379 -y 28.700740 -U -0.965606 -V -0.260011 -T 16.012982
n -t 15.000000 -s 3 -x 42.599269 -y 63.603156 -U -0.708035 -V -0.706178 -T 35.294010
n -t 15.000000 -s 0 -x 17.956141 -y 40.952140 -U 0.986699 -V -0.162555 -T 8.981843
n -t 16.000000 -s 0 -x 18.942841 -y 40.789585 -U 0.000000 -V 0.000000 -T 0.000000
n -t 16.000000 -s 7 -x 60.390773 -y 28.440728 -U 0.000000 -V 0.000000 -T 0.000000
n -t 16.000000 -s 3 -x 41.891234 -y 62.896978 -U 0.000000 -V 0.000000 -T 0.000000
n -t 16.000000 -s 0 -x 18.942841 -y 40.789585 -U 0.963843 -V -0.266470 -T 12.931585
n -t 16.000000 -s 7 -x 60.390773 -y 28.440728 -U -0.942973 -V -0.332870 -T 15.739352
n -t 16.000000 -s 3 -x 41.891234 -y 62.896978 -U -0.693929 -V -0.720044 -T 35.488520
n -t 16.000000 -s 0 -x 18.942841 -y 40.789585 -U 0.963843 -V -0.266470 -T 7.931585
n -t 17.000000 -s 0 -x 19.906684 -y 40.523115 -U 0.000000 -V 0.000000 -T 0.000000
n -t 17.000000 -s 7 -x 59.447801 -y 28.107858 -U 0.000000 -V 0.000000 -T 0.000000
n -t 17.000000 -s 3 -x 41.197305 -y 62.176935 -U 0.000000 -V 0.000000 -T 0.000000
n -t 17.000000 -s 0 -x 19.906684 -y 40.523115 -U 0.963843 -V -0.266470 -T 11.931585
n -t 17.000000 -s 7 -x 59.447801 -y 28.107858 -U -0.942973 -V -0.332870 -T 14.739352
n -t 17.000000 -s 3 -x 41.197305 -y 62.176935 -U -0.693929 -V -0.720044 -T 34.488520
n -t 17.000000 -s 0 -x 19.906684 -y 40.523115 -U 0.963843 -V -0.266470 -T 6.931585
n -t 18.000000 -s 0 -x 20.870527 -y 40.256644 -U 0.000000 -V 0.000000 -T 0.000000
n -t 18.000000 -s 7 -x 58.504828 -y 27.774987 -U 0.000000 -V 0.000000 -T 0.000000
n -t 18.000000 -s 3 -x 40.503377 -y 61.456891 -U 0.000000 -V 0.000000 -T 0.000000
n -t 18.000000 -s 0 -x 20.870527 -y 40.256644 -U 0.963843 -V -0.266470 -T 10.931585
n -t 18.000000 -s 7 -x 58.504828 -y 27.774987 -U -0.942973 -V -0.332870 -T 13.739352
n -t 18.000000 -s 3 -x 40.503377 -y 61.456891 -U -0.693929 -V -0.720044 -T 33.488520
n -t 18.000000 -s 0 -x 20.870527 -y 40.256644 -U 0.963843 -V -0.266470 -T 5.931585
n -t 19.000000 -s 0 -x 21.834370 -y 39.990174 -U 0.000000 -V 0.000000 -T 0.000000
n -t 19.000000 -s 7 -x 57.561855 -y 27.442117 -U 0.000000 -V 0.000000 -T 0.000000
n -t 19.000000 -s 3 -x 39.809448 -y 60.736848 -U 0.000000 -V 0.000000 -T 0.000000
n -t 19.000000 -s 0 -x 21.834370 -y 39.990174 -U 0.963843 -V -0.266470 -T 9.931585
n -t 19.000000 -s 7 -x 57.561855 -y 27.442117 -U -0.942973 -V -0.332870 -T 12.739352
n -t 19.000000 -s 3 -x 39.809448 -y 60.736848 -U -0.693929 -V -0.720044 -T 32.488520
n -t 19.000000 -s 0 -x 21.834370 -y 39.990174 -U 0.963843 -V -0.266470 -T 4.931585
n -t 19.000000 -s 7 -x 57.561855 -y 27.442117 -U 0.000000 -V 0.000000 -T 0.000000
n -t 19.000000 -s 3 -x 39.809448 -y 60.736848 -U 0.000000 -V 0.000000 -T 0.000000
n -t 20.000000 -s 0 -x 22.798213 -y 39.723703 -U 0.963843 -V -0.266470 -T 3.931585
n -t 20.000000 -s 7 -x 57.561855 -y 27.442117 -U 0.000000 -V 0.000000 -T 0.000000
n -t 20.000000 -s 3 -x 39.809448 -y 60.736848 -U 0.000000 -V 0.000000 -T 0.000000
n -t 21.000000 -s 10 -x 31.406860 -y 37.343700 -U 0.595817 -V 2.505297 -T 21.027703
n -t 21.000000 -s 0 -x 23.762056 -y 39.457233 -U 0.963843 -V -0.266470 -T 2.931585
n -t 21.000000 -s 7 -x 57.561855 -y 27.442117 -U 0.000000 -V 0.000000 -T 0.000000
n -t 21.000000 -s 3 -x 39.809448 -y 60.736848 -U 0.000000 -V 0.000000 -T 0.000000
n -t 22.000000 -s 0 -x 24.725899 -y 39.190762 -U 0.995934 -V 0.090089 -T 2.306488
n -t 22.000000 -s 7 -x 57.561855 -y 27.442117 -U 0.000000 -V 0.000000 -T 0.000000
n -t 22.000000 -s 3 -x 39.809448 -y 60.736848 -U 0.000000 -V 0.000000 -T 0.000000
n -t 23.000000 -s 0 -x 25.721833 -y 39.280851 -U 0.912965 -V 0.408039 -T 2.532232
n -t 23.000000 -s 7 -x 57.561855 -y 27.442117 -U 0.000000 -V 0.000000 -T 0.000000
n -t 23.000000 -s 3 -x 39.809448 -y 60.736848 -U 0.000000 -V 0.000000 -T 0.000000
n -t 24.000000 -s 0 -x 26.634798 -y 39.688890 -U 0.000000 -V 0.000000 -T 0.000000
n -t 24.000000 -s 7 -x 57.561855 -y 27.442117 -U 0.000000 -V 0.000000 -T 0.000000
n -t 24.000000 -s 3 -x 39.809448 -y 60.736848 -U 0.000000 -V 0.000000 -T 0.000000
n -t 24.000000 -s 0 -x 26.634798 -y 39.688890 -U 0.785340 -V 0.619064 -T 8.352447
n -t 24.000000 -s 3 -x 39.809448 -y 60.736848 -U -0.967279 -V -0.253713 -T 6.838908
n -t 24.000000 -s 6 -x 44.742468 -y 77.875097 -U -0.805899 -V -0.592053 -T 31.877817
n -t 24.000000 -s 7 -x 57.561855 -y 27.442117 -U -0.911140 -V 0.412098 -T 42.265397
n -t 24.000000 -s 3 -x 39.809448 -y 60.736848 -U -0.600610 -V -0.799542 -T 11.014036
n -t 24.000000 -s 0 -x 26.634798 -y 39.688890 -U 0.785340 -V 0.619064 -T 3.352447
n -t 24.000000 -s 3 -x 39.809448 -y 60.736848 -U 0.000000 -V 0.000000 -T 0.000000
n -t 24.000000 -s 6 -x 44.742468 -y 77.875097 -U 0.000000 -V 0.000000 -T 0.000000
n -t 24.000000 -s 7 -x 57.561855 -y 27.442117 -U 0.000000 -V 0.000000 -T 0.000000
n -t 25.000000 -s 3 -x 39.809448 -y 60.736848 -U -0.564303 -V -0.825568 -T 10.666825
n -t 25.000000 -s 0 -x 27.420138 -y 40.307954 -U 0.670054 -V 0.742313 -T 4.506687
n -t 25.000000 -s 3 -x 39.809448 -y 60.736848 -U 0.000000 -V 0.000000 -T 0.000000
n -t 25.000000 -s 6 -x 44.742468 -y 77.875097 -U 0.000000 -V 0.000000 -T 0.000000
n -t 25.000000 -s 7 -x 57.561855 -y 27.442117 -U 0.000000 -V 0.000000 -T 0.000000
n -t 26.000000 -s 3 -x 39.809448 -y 60.736848 -U -0.524399 -V -0.851472 -T 10.342308
n -t 26.000000 -s 0 -x 28.090192 -y 41.050267 -U 0.580982 -V 0.813916 -T 5.836396
n -t 27.000000 -s 0 -x 28.671174 -y 41.864183 -U 0.000000 -V 0.000000 -T 0.000000
n -t 27.000000 -s 3 -x 39.285048 -y 59.885375 -U 0.000000 -V 0.000000 -T 0.000000
n -t 27.000000 -s 6 -x 44.742468 -y 77.875097 -U 0.000000 -V 0.000000 -T 0.000000
n -t 27.000000 -s 7 -x 57.561855 -y 27.442117 -U 0.000000 -V 0.000000 -T 0.000000
n -t 27.000000 -s 3 -x 39.285048 -y 59.885375 -U -0.497176 -V -0.867649 -T 8.655447
n -t 27.000000 -s 6 -x 44.742468 -y 77.875097 -U -0.651781 -V -0.758407 -T 14.975436
n -t 27.000000 -s 0 -x 28.671174 -y 41.864183 -U -0.302757 -V 0.953068 -T 25.867449
n -t 27.000000 -s 5 -x 54.064549 -y 72.244936 -U -0.653190 -V -0.757194 -T 7.563875
n -t 27.000000 -s 7 -x 57.561855 -y 27.442117 -U -0.827322 -V 0.561728 -T 44.386874
n -t 27.000000 -s 3 -x 39.285048 -y 59.885375 -U -0.497176 -V -0.867649 -T 3.655447
n -t 27.000000 -s 6 -x 44.742468 -y 77.875097 -U 0.000000 -V 0.000000 -T 0.000000
n -t 27.000000 -s 0 -x 28.671174 -y 41.864183 -U 0.000000 -V 0.000000 -T 0.000000
n -t 27.000000 -s 5 -x 54.064549 -y 72.244936 -U 0.000000 -V 0.000000 -T 0.000000
n -t 27.000000 -s 7 -x 57.561855 -y 27.442117 -U 0.000000 -V 0.000000 -T 0.000000
n -t 28.000000 -s 3 -x 38.787872 -y 59.017726 -U -0.613067 -V -0.790031 -T 0.236440
n -t 28.000000 -s 6 -x 44.742468 -y 77.875097 -U 0.000000 -V 0.000000 -T 0.000000
n -t 28.000000 -s 0 -x 28.671174 -y 41.864183 -U 0.000000 -V 0.000000 -T 0.000000
n -t 28.000000 -s 5 -x 54.064549 -y 72.244936 -U 0.000000 -V 0.000000 -T 0.000000
n -t 28.000000 -s 7 -x 57.561855 -y 27.442117 -U 0.000000 -V 0.000000 -T 0.000000
n -t 29.000000 -s 6 -x 44.742468 -y 77.875097 -U 0.000000 -V 0.000000 -T 0.000000
n -t 29.000000 -s 0 -x 28.671174 -y 41.864183 -U 0.000000 -V 0.000000 -T 0.000000
n -t 29.000000 -s 5 -x 54.064549 -y 72.244936 -U 0.000000 -V 0.000000 -T 0.000000
n -t 29.000000 -s 7 -x 57.561855 -y 27.442117 -U 0.000000 -V 0.000000 -T 0.000000
n -t 30.000000 -s 3 -x 38.642918 -y 58.830931 -U 0.000000 -V 0.000000 -T 0.000000
n -t 30.000000 -s 6 -x 44.742468 -y 77.875097 -U 0.000000 -V 0.000000 -T 0.000000
n -t 30.000000 -s 0 -x 28.671174 -y 41.864183 -U 0.000000 -V 0.000000 -T 0.000000
n -t 30.000000 -s 5 -x 54.064549 -y 72.244936 -U 0.000000 -V 0.000000 -T 0.000000
n -t 30.000000 -s 7 -x 57.561855 -y 27.442117 -U 0.000000 -V 0.000000 -T 0.000000
n -t 30.000000 -s 6 -x 44.742468 -y 77.875097 -U -0.900886 -V -0.434056 -T 8.850455
n -t 30.000000 -s 5 -x 54.064549 -y 72.244936 -U -0.869814 -V 0.493380 -T 3.625140
n -t 30.000000 -s 3 -x 38.642918 -y 58.830931 -U -0.997815 -V 0.066067 -T 16.050907
n -t 30.000000 -s 6 -x 44.742468 -y 77.875097 -U 0.000000 -V 0.000000 -T 0.000000
n -t 30.000000 -s 5 -x 54.064549 -y 72.244936 -U 0.000000 -V 0.000000 -T 0.000000
n -t 31.000000 -s 6 -x 44.742468 -y 77.875097 -U 0.000000 -V 0.000000 -T 0.000000
n -t 31.000000 -s 5 -x 54.064549 -y 72.244936 -U 0.000000 -V 0.000000 -T 0.000000
n -t 32.000000 -s 3 -x 36.647288 -y 58.963066 -U 0.215960 -V 0.976402 -T 1.082432
n -t 32.000000 -s 6 -x 44.742468 -y 77.875097 -U 0.000000 -V 0.000000 -T 0.000000
n -t 32.000000 -s 5 -x 54.064549 -y 72.244936 -U 0.000000 -V 0.000000 -T 0.000000
n -t 33.000000 -s 6 -x 44.742468 -y 77.875097 -U 0.000000 -V 0.000000 -T 0.000000
n -t 33.000000 -s 5 -x 54.064549 -y 72.244936 -U 0.000000 -V 0.000000 -T 0.000000
n -t 33.000000 -s 3 -x 36.863248 -y 59.939468 -U 0.000000 -V 0.000000 -T 0.000000
n -t 33.000000 -s 3 -x 36.863248 -y 59.939468 -U 0.221148 -V 0.975240 -T 7.657390
n -t 33.000000 -s 6 -x 44.742468 -y 77.875097 -U -0.859764 -V 0.510691 -T 7.194762
n -t 33.000000 -s 5 -x 54.064549 -y 72.244936 -U -0.145228 -V 0.989398 -T 9.404162
n -t 33.000000 -s 0 -x 28.671174 -y 41.864183 -U -0.164379 -V 0.986397 -T 25.895326
n -t 33.000000 -s 4 -x 61.991240 -y 95.734780 -U -0.311694 -V -0.950183 -T 29.812709
n -t 33.000000 -s 6 -x 44.742468 -y 77.875097 -U -0.876540 -V -0.481329 -T 7.057063
n -t 33.000000 -s 3 -x 36.863248 -y 59.939468 -U 0.221148 -V 0.975240 -T 2.657390
n -t 33.000000 -s 6 -x 44.742468 -y 77.875097 -U 0.000000 -V 0.000000 -T 0.000000
n -t 33.000000 -s 5 -x 54.064549 -y 72.244936 -U 0.000000 -V 0.000000 -T 0.000000
n -t 33.000000 -s 0 -x 28.671174 -y 41.864183 -U 0.000000 -V 0.000000 -T 0.000000
n -t 33.000000 -s 4 -x 61.991240 -y 95.734780 -U 0.000000 -V 0.000000 -T 0.000000
n -t 34.000000 -s 6 -x 44.742468 -y 77.875097 -U -0.854594 -V -0.519296 -T 6.541095
n -t 34.000000 -s 3 -x 37.084396 -y 60.914708 -U 0.224002 -V 0.974589 -T 4.232460
n -t 34.000000 -s 6 -x 44.742468 -y 77.875097 -U 0.000000 -V 0.000000 -T 0.000000
n -t 34.000000 -s 5 -x 54.064549 -y 72.244936 -U 0.000000 -V 0.000000 -T 0.000000
n -t 34.000000 -s 0 -x 28.671174 -y 41.864183 -U 0.000000 -V 0.000000 -T 0.000000
n -t 34.000000 -s 4 -x 61.991240 -y 95.734780 -U 0.000000 -V 0.000000 -T 0.000000
n -t 35.000000 -s 6 -x 44.742468 -y 77.875097 -U -0.826870 -V -0.562393 -T 6.039843
n -t 35.000000 -s 6 -x 44.742468 -y 77.875097 -U -0.675114 -V -0.737713 -T 2.397510
n -t 35.000000 -s 3 -x 37.308398 -y 61.889297 -U 0.000000 -V 0.000000 -T 0.000000
n -t 35.000000 -s 5 -x 54.064549 -y 72.244936 -U 0.000000 -V 0.000000 -T 0.000000
n -t 35.000000 -s 0 -x 28.671174 -y 41.864183 -U 0.000000 -V 0.000000 -T 0.000000
n -t 35.000000 -s 4 -x 61.991240 -y 95.734780 -U 0.000000 -V 0.000000 -T 0.000000
n -t 36.000000 -s 3 -x 37.308398 -y 61.889297 -U 0.000000 -V 0.000000 -T 0.000000
n -t 36.000000 -s 6 -x 44.067353 -y 77.137384 -U 0.000000 -V 0.000000 -T 0.000000
n -t 36.000000 -s 5 -x 54.064549 -y 72.244936 -U 0.000000 -V 0.000000 -T 0.000000
n -t 36.000000 -s 0 -x 28.671174 -y 41.864183 -U 0.000000 -V 0.000000 -T 0.000000
n -t 36.000000 -s 4 -x 61.991240 -y 95.734780 -U 0.000000 -V 0.000000 -T 0.000000
n -t 36.000000 -s 6 -x 44.067353 -y 77.137384 -U -0.859494 -V -0.511146 -T 4.331892
n -t 36.000000 -s 1 -x 31.477390 -y 97.931120 -U 0.707143 -V -0.707071 -T 12.538814
n -t 36.000000 -s 4 -x 61.991240 -y 95.734780 -U -0.747489 -V -0.664274 -T 10.040264
n -t 36.000000 -s 5 -x 54.064549 -y 72.244936 -U 0.155542 -V 0.987829 -T 2.711214
n -t 36.000000 -s 1 -x 31.477390 -y 97.931120 -U 0.000000 -V 0.000000 -T 0.000000
n -t 36.000000 -s 4 -x 61.991240 -y 95.734780 -U 0.000000 -V 0.000000 -T 0.000000
n -t 36.000000 -s 5 -x 54.064549 -y 72.244936 -U 0.000000 -V 0.000000 -T 0.000000
n -t 37.000000 -s 1 -x 31.477390 -y 97.931120 -U 0.000000 -V 0.000000 -T 0.000000
n -t 37.000000 -s 4 -x 61.991240 -y 95.734780 -U 0.000000 -V 0.000000 -T 0.000000
n -t 37.000000 -s 5 -x 54.064549 -y 72.244936 -U 0.000000 -V 0.000000 -T 0.000000
n -t 38.000000 -s 1 -x 31.477390 -y 97.931120 -U 0.000000 -V 0.000000 -T 0.000000
n -t 38.000000 -s 4 -x 61.991240 -y 95.734780 -U 0.000000 -V 0.000000 -T 0.000000
n -t 38.000000 -s 5 -x 54.064549 -y 72.244936 -U 0.000000 -V 0.000000 -T 0.000000
n -t 39.000000 -s 6 -x 41.488872 -y 75.603945 -U 0.000000 -V 0.000000 -T 0.000000
n -t 39.000000 -s 1 -x 31.477390 -y 97.931120 -U 0.000000 -V 0.000000 -T 0.000000
n -t 39.000000 -s 4 -x 61.991240 -y 95.734780 -U 0.000000 -V 0.000000 -T 0.000000
n -t 39.000000 -s 5 -x 54.064549 -y 72.244936 -U 0.000000 -V 0.000000 -T 0.000000
n -t 39.000000 -s 6 -x 41.488872 -y 75.603945 -U 0.093616 -V 0.995608 -T 6.865249
n -t 39.000000 -s 1 -x 31.477390 -y 97.931120 -U 0.992068 -V -0.125700 -T 10.739364
n -t 39.000000 -s 4 -x 61.991240 -y 95.734780 -U -0.989220 -V 0.146440 -T 5.779842
n -t 39.000000 -s 6 -x 41.488872 -y 75.603945 -U 0.093616 -V 0.995608 -T 1.865249
n -t 39.000000 -s 1 -x 31.477390 -y 97.931120 -U 0.000000 -V 0.000000 -T 0.000000
n -t 39.000000 -s 4 -x 61.991240 -y 95.734780 -U 0.000000 -V 0.000000 -T 0.000000
n -t 40.000000 -s 6 -x 41.582489 -y 76.599553 -U 0.135926 -V 0.990719 -T 3.422961
n -t 40.000000 -s 1 -x 31.477390 -y 97.931120 -U 0.000000 -V 0.000000 -T 0.000000
n -t 40.000000 -s 4 -x 61.991240 -y 95.734780 -U 0.000000 -V 0.000000 -T 0.000000
n -t 41.000000 -s 6 -x 41.718415 -y 77.590272 -U 0.160654 -V 0.987011 -T 4.989116
n -t 41.000000 -s 1 -x 31.477390 -y 97.931120 -U 0.000000 -V 0.000000 -T 0.000000
n -t 41.000000 -s 4 -x 61.991240 -y 95.734780 -U 0.000000 -V 0.000000 -T 0.000000
n -t 42.000000 -s 6 -x 41.879069 -y 78.577283 -U 0.000000 -V 0.000000 -T 0.000000
n -t 42.000000 -s 1 -x 31.477390 -y 97.931120 -U 0.000000 -V 0.000000 -T 0.000000
n -t 42.000000 -s 4 -x 61.991240 -y 95.734780 -U 0.000000 -V 0.000000 -T 0.000000
n -t 42.000000 -s 6 -x 41.879069 -y 78.577283 -U 0.176481 -V 0.984304 -T 11.559082
n -t 42.000000 -s 1 -x 31.477390 -y 97.931120 -U 0.986455 -V 0.164034 -T 12.612475
n -t 42.000000 -s 4 -x 61.991240 -y 95.734780 -U -0.991349 -V 0.131256 -T 32.495485
n -t 42.000000 -s 5 -x 54.064549 -y 72.244936 -U 0.142526 -V 0.989791 -T 28.041335
n -t 42.000000 -s 6 -x 41.879069 -y 78.577283 -U 0.176481 -V 0.984304 -T 6.559082
n -t 43.000000 -s 6 -x 42.055549 -y 79.561587 -U 0.000000 -V 0.000000 -T 0.000000
n -t 43.000000 -s 1 -x 32.463845 -y 98.095154 -U 0.000000 -V 0.000000 -T 0.000000
n -t 43.000000 -s 4 -x 60.999891 -y 95.866036 -U 0.000000 -V 0.000000 -T 0.000000
n -t 43.000000 -s 5 -x 54.207075 -y 73.234728 -U 0.000000 -V 0.000000 -T 0.000000
n -t 43.000000 -s 6 -x 42.055549 -y 79.561587 -U 0.176851 -V 0.984238 -T 10.630311
n -t 43.000000 -s 1 -x 32.463845 -y 98.095154 -U 0.986493 -V 0.163805 -T 11.628758
n -t 43.000000 -s 4 -x 60.999891 -y 95.866036 -U -0.991340 -V 0.131324 -T 31.479122
n -t 43.000000 -s 5 -x 54.207075 -y 73.234728 -U 0.143124 -V 0.989705 -T 27.043692
n -t 43.000000 -s 6 -x 42.055549 -y 79.561587 -U 0.176851 -V 0.984238 -T 5.630311
n -t 44.000000 -s 6 -x 42.232400 -y 80.545825 -U 0.000000 -V 0.000000 -T 0.000000
n -t 44.000000 -s 1 -x 33.450337 -y 98.258959 -U 0.000000 -V 0.000000 -T 0.000000
n -t 44.000000 -s 4 -x 60.008552 -y 95.997360 -U 0.000000 -V 0.000000 -T 0.000000
n -t 44.000000 -s 5 -x 54.350198 -y 74.224432 -U 0.000000 -V 0.000000 -T 0.000000
n -t 44.000000 -s 6 -x 42.232400 -y 80.545825 -U 0.176851 -V 0.984238 -T 9.630311
n -t 44.000000 -s 1 -x 33.450337 -y 98.258959 -U 0.986493 -V 0.163805 -T 10.628758
n -t 44.000000 -s 4 -x 60.008552 -y 95.997360 -U -0.991340 -V 0.131324 -T 30.479122
n -t 44.000000 -s 5 -x 54.350198 -y 74.224432 -U 0.143124 -V 0.989705 -T 26.043692
n -t 44.000000 -s 6 -x 42.232400 -y 80.545825 -U 0.176851 -V 0.984238 -T 4.630311
n -t 44.000000 -s 1 -x 33.450337 -y 98.258959 -U 0.000000 -V 0.000000 -T 0.000000
n -t 44.000000 -s 4 -x 60.008552 -y 95.997360 -U 0.000000 -V 0.000000 -T 0.000000
n -t 44.000000 -s 5 -x 54.350198 -y 74.224432 -U 0.000000 -V 0.000000 -T 0.000000
n -t 45.000000 -s 6 -x 42.409251 -y 81.530063 -U 0.176851 -V 0.984238 -T 3.630311
n -t 45.000000 -s 1 -x 33.450337 -y 98.258959 -U 0.000000 -V 0.000000 -T 0.000000
n -t 45.000000 -s 4 -x 60.008552 -y 95.997360 -U 0.000000 -V 0.000000 -T 0.000000
n -t 45.000000 -s 5 -x 54.350198 -y 74.224432 -U 0.000000 -V 0.000000 -T 0.000000
n -t 46.000000 -s 6 -x 42.586102 -y 82.514300 -U 0.176851 -V 0.984238 -T 2.630311
n -t 46.000000 -s 1 -x 33.450337 -y 98.258959 -U 0.000000 -V 0.000000 -T 0.000000
n -t 46.000000 -s 4 -x 60.008552 -y 95.997360 -U 0.000000 -V 0.000000 -T 0.000000
n -t 46.000000 -s 5 -x 54.350198 -y 74.224432 -U 0.000000 -V 0.000000 -T 0.000000
n -t 47.000000 -s 6 -x 42.762953 -y 83.498538 -U 0.176851 -V 0.984238 -T 1.630311
n -t 47.000000 -s 1 -x 33.450337 -y 98.258959 -U 0.000000 -V 0.000000 -T 0.000000
n -t 47.000000 -s 4 -x 60.008552 -y 95.997360 -U 0.000000 -V 0.000000 -T 0.000000
n -t 47.000000 -s 5 -x 54.350198 -y 74.224432 -U 0.000000 -V 0.000000 -T 0.000000
n -t 48.000000 -s 6 -x 42.939804 -y 84.482775 -U 0.176851 -V 0.984238 -T 0.630311
n -t 48.000000 -s 1 -x 33.450337 -y 98.258959 -U 0.000000 -V 0.000000 -T 0.000000
n -t 48.000000 -s 4 -x 60.008552 -y 95.997360 -U 0.000000 -V 0.000000 -T 0.000000
n -t 48.000000 -s 5 -x 54.350198 -y 74.224432 -U 0.000000 -V 0.000000 -T 0.000000
n -t 49.000000 -s 1 -x 33.450337 -y 98.258959 -U 0.000000 -V 0.000000 -T 0.000000
n -t 49.000000 -s 4 -x 60.008552 -y 95.997360 -U 0.000000 -V 0.000000 -T 0.000000
n -t 49.000000 -s 5 -x 54.350198 -y 74.224432 -U 0.000000 -V 0.000000 -T 0.000000
n -t 50.000000 -s 10 -x 43.935530 -y 90.024340 -U 0.297533 -V -1.275958 -T 50.486786
n -t 50.000000 -s 1 -x 33.450337 -y 98.258959 -U 0.000000 -V 0.000000 -T 0.000000
n -t 50.000000 -s 4 -x 60.008552 -y 95.997360 -U 0.000000 -V 0.000000 -T 0.000000
n -t 50.000000 -s 5 -x 54.350198 -y 74.224432 -U 0.000000 -V 0.000000 -T 0.000000
n -t 51.000000 -s 1 -x 33.450337 -y 98.258959 -U 0.000000 -V 0.000000 -T 0.000000
n -t 51.000000 -s 4 -x 60.008552 -y 95.997360 -U 0.000000 -V 0.000000 -T 0.000000
n -t 51.000000 -s 5 -x 54.350198 -y 74.224432 -U 0.000000 -V 0.000000 -T 0.000000
n -t 52.000000 -s 1 -x 33.450337 -y 98.258959 -U 0.000000 -V 0.000000 -T 0.000000
n -t 52.000000 -s 4 -x 60.008552 -y 95.997360 -U 0.000000 -V 0.000000 -T 0.000000
n -t 52.000000 -s 5 -x 54.350198 -y 74.224432 -U 0.000000 -V 0.000000 -T 0.000000
n -t 53.000000 -s 1 -x 33.450337 -y 98.258959 -U 0.000000 -V 0.000000 -T 0.000000
n -t 53.000000 -s 4 -x 60.008552 -y 95.997360 -U 0.000000 -V 0.000000 -T 0.000000
n -t 53.000000 -s 5 -x 54.350198 -y 74.224432 -U 0.000000 -V 0.000000 -T 0.000000
n -t 54.000000 -s 1 -x 33.450337 -y 98.258959 -U 0.000000 -V 0.000000 -T 0.000000
n -t 54.000000 -s 4 -x 60.008552 -y 95.997360 -U 0.000000 -V 0.000000 -T 0.000000
n -t 54.000000 -s 5 -x 54.350198 -y 74.224432 -U 0.000000 -V 0.000000 -T 0.000000
n -t 55.000000 -s 1 -x 33.450337 -y 98.258959 -U 0.000000 -V 0.000000 -T 0.000000
n -t 55.000000 -s 4 -x 60.008552 -y 95.997360 -U 0.000000 -V 0.000000 -T 0.000000
n -t 55.000000 -s 5 -x 54.350198 -y 74.224432 -U 0.000000 -V 0.000000 -T 0.000000
n -t 56.000000 -s 6 -x 43.051275 -y 85.103152 -U 0.000000 -V 0.000000 -T 0.000000
n -t 56.000000 -s 1 -x 33.450337 -y 98.258959 -U 0.000000 -V 0.000000 -T 0.000000
n -t 56.000000 -s 4 -x 60.008552 -y 95.997360 -U 0.000000 -V 0.000000 -T 0.000000
n -t 56.000000 -s 5 -x 54.350198 -y 74.224432 -U 0.000000 -V 0.000000 -T 0.000000
n -t 56.000000 -s 6 -x 43.051275 -y 85.103152 -U 0.698537 -V -0.715574 -T 3.821492
n -t 56.000000 -s 5 -x 54.350198 -y 74.224432 -U -0.821134 -V -0.570735 -T 10.509210
n -t 56.000000 -s 3 -x 37.308398 -y 61.889297 -U 0.962721 -V 0.270497 -T 23.427835
n -t 56.000000 -s 4 -x 60.008552 -y 95.997360 -U -0.010689 -V -0.999943 -T 13.629548
n -t 56.000000 -s 5 -x 54.350198 -y 74.224432 -U 0.000000 -V 0.000000 -T 0.000000
n -t 56.000000 -s 3 -x 37.308398 -y 61.889297 -U 0.000000 -V 0.000000 -T 0.000000
n -t 56.000000 -s 4 -x 60.008552 -y 95.997360 -U 0.000000 -V 0.000000 -T 0.000000
n -t 57.000000 -s 5 -x 54.350198 -y 74.224432 -U 0.000000 -V 0.000000 -T 0.000000
n -t 57.000000 -s 3 -x 37.308398 -y 61.889297 -U 0.000000 -V 0.000000 -T 0.000000
n -t 57.000000 -s 4 -x 60.008552 -y 95.997360 -U 0.000000 -V 0.000000 -T 0.000000