n -t * -s 0  -x 73.422439999999995 -y 42.099490000000003 -Z 0 -z 1  -v circle -c black
n -t * -s 1  -x 10.07591 -y 44.830329999999996 -Z 0 -z 1  -v circle -c black
n -t * -s 2  -x 97.214839999999995 -y 60.626339999999999 -Z 0 -z 1  -v circle -c black
n -t * -s 3  -x 36.912680000000002 -y 68.728009999999998 -Z 0 -z 1  -v circle -c black
n -t * -s 4  -x 52.240259999999999 -y 82.794619999999995 -Z 0 -z 1  -v circle -c black
n -t * -s 5  -x 68.492239999999995 -y 43.127769999999998 -Z 0 -z 1  -v circle -c black
n -t * -s 6  -x 65.805210000000002 -y 14.815770000000001 -Z 0 -z 1  -v circle -c black
n -t * -s 7  -x 59.219920000000002 -y 68.438980000000001 -Z 0 -z 1  -v circle -c black
n -t * -s 8  -x 56.384569999999997 -y 2.0529760000000001 -Z 0 -z 1  -v circle -c black
n -t * -s 9  -x 97.571960000000004 -y 34.164349999999999 -Z 0 -z 1  -v circle -c black
n -t * -s 10  -x 0.5351842 -y 38.499279999999999 -Z 0 -z 1  -v circle -c black
n -t * -s 11  -x 47.008040000000001 -y 78.441890000000001 -Z 0 -z 1  -v circle -c black
n -t * -s 12  -x 23.30245 -y 98.961410000000001 -Z 0 -z 1  -v circle -c black
n -t * -s 13  -x 12.65936 -y 35.95599 -Z 0 -z 1  -v circle -c black
n -t * -s 14  -x 47.268970000000003 -y 23.436450000000001 -Z 0 -z 1  -v circle -c black
n -t * -s 15  -x 14.580030000000001 -y 64.256110000000007 -Z 0 -z 1  -v circle -c black
n -t * -s 16  -x 15.755240000000001 -y 36.329599999999999 -Z 0 -z 2  -v circle -c black
V -t * -v 1.0a5 -a 0
W -t * -x 100 -y 100
A -t * -n 1 -p 0 -o 0x7fffffff -c 30 -a 1
A -t * -h 1 -m 1073741823 -s 0
n -t 0 -s 16 -S COLOR -c red -o black -i red -I black
n -t 0.000000 -s 16 -x 15.755240 -y 36.329600 -U 0.713108 -V -0.076379 -T 28.895957
n -t 0.000000 -s 1 -x 10.075910 -y 44.830330 -U 0.555525 -V -0.831500 -T 5.223365
n -t 0.000000 -s 3 -x 36.912680 -y 68.728010 -U -0.546776 -V -0.837279 -T 33.694886
n -t 0.000000 -s 10 -x 0.535184 -y 38.499280 -U 0.989991 -V -0.141127 -T 10.373926
n -t 0.000000 -s 14 -x 47.268970 -y 23.436450 -U -0.925535 -V 0.378662 -T 29.049207
n -t 0.000000 -s 15 -x 14.580030 -y 64.256110 -U 0.042045 -V -0.999116 -T 22.951227
n -t 0.000000 -s 1 -x 10.075910 -y 44.830330 -U 0.000000 -V 0.000000 -T 0.000000
n -t 0.000000 -s 3 -x 36.912680 -y 68.728010 -U 0.000000 -V 0.000000 -T 0.000000
n -t 0.000000 -s 10 -x 0.535184 -y 38.499280 -U 0.000000 -V 0.000000 -T 0.000000
n -t 0.000000 -s 14 -x 47.268970 -y 23.436450 -U 0.000000 -V 0.000000 -T 0.000000
n -t 0.000000 -s 15 -x 14.580030 -y 64.256110 -U 0.000000 -V 0.000000 -T 0.000000
n -t 1.000000 -s 1 -x 10.075910 -y 44.830330 -U 0.000000 -V 0.000000 -T 0.000000
n -t 1.000000 -s 3 -x 36.912680 -y 68.728010 -U 0.000000 -V 0.000000 -T 0.000000
n -t 1.000000 -s 10 -x 0.535184 -y 38.499280 -U 0.000000 -V 0.000000 -T 0.000000
n -t 1.000000 -s 14 -x 47.268970 -y 23.436450 -U 0.000000 -V 0.000000 -T 0.000000
n -t 1.000000 -s 15 -x 14.580030 -y 64.256110 -U 0.000000 -V 0.000000 -T 0.000000
n -t 2.000000 -s 1 -x 10.075910 -y 44.830330 -U 0.000000 -V 0.000000 -T 0.000000
n -t 2.000000 -s 3 -x 36.912680 -y 68.728010 -U 0.000000 -V 0.000000 -T 0.000000
n -t 2.000000 -s 10 -x 0.535184 -y 38.499280 -U 0.000000 -V 0.000000 -T 0.000000
n -t 2.000000 -s 14 -x 47.268970 -y 23.436450 -U 0.000000 -V 0.000000 -T 0.000000
n -t 2.000000 -s 15 -x 14.580030 -y 64.256110 -U 0.000000 -V 0.000000 -T 0.000000
n -t 3.000000 -s 1 -x 10.075910 -y 44.830330 -U 0.000000 -V 0.000000 -T 0.000000
n -t 3.000000 -s 3 -x 36.912680 -y 68.728010 -U 0.000000 -V 0.000000 -T 0.000000
n -t 3.000000 -s 10 -x 0.535184 -y 38.499280 -U 0.000000 -V 0.000000 -T 0.000000
n -t 3.000000 -s 14 -x 47.268970 -y 23.436450 -U 0.000000 -V 0.000000 -T 0.000000
n -t 3.000000 -s 15 -x 14.580030 -y 64.256110 -U 0.000000 -V 0.000000 -T 0.000000
n -t 4.000000 -s 1 -x 10.075910 -y 44.830330 -U 0.000000 -V 0.000000 -T 0.000000
n -t 4.000000 -s 3 -x 36.912680 -y 68.728010 -U 0.000000 -V 0.000000 -T 0.000000
n -t 4.000000 -s 10 -x 0.535184 -y 38.499280 -U 0.000000 -V 0.000000 -T 0.000000
n -t 4.000000 -s 14 -x 47.268970 -y 23.436450 -U 0.000000 -V 0.000000 -T 0.000000
n -t 4.000000 -s 15 -x 14.580030 -y 64.256110 -U 0.000000 -V 0.000000 -T 0.000000
n -t 5.000000 -s 1 -x 10.075910 -y 44.830330 -U 0.000000 -V 0.000000 -T 0.000000
n -t 5.000000 -s 3 -x 36.912680 -y 68.728010 -U 0.000000 -V 0.000000 -T 0.000000
n -t 5.000000 -s 10 -x 0.535184 -y 38.499280 -U 0.000000 -V 0.000000 -T 0.000000
n -t 5.000000 -s 14 -x 47.268970 -y 23.436450 -U 0.000000 -V 0.000000 -T 0.000000
n -t 5.000000 -s 15 -x 14.580030 -y 64.256110 -U 0.000000 -V 0.000000 -T 0.000000
n -t 6.000000 -s 1 -x 10.075910 -y 44.830330 -U 0.000000 -V 0.000000 -T 0.000000
n -t 6.000000 -s 3 -x 36.912680 -y 68.728010 -U 0.000000 -V 0.000000 -T 0.000000
n -t 6.000000 -s 10 -x 0.535184 -y 38.499280 -U 0.000000 -V 0.000000 -T 0.000000
n -t 6.000000 -s 14 -x 47.268970 -y 23.436450 -U 0.000000 -V 0.000000 -T 0.000000
n -t 6.000000 -s 15 -x 14.580030 -y 64.256110 -U 0.000000 -V 0.000000 -T 0.000000
n -t 7.000000 -s 1 -x 10.075910 -y 44.830330 -U 0.000000 -V 0.000000 -T 0.000000
n -t 7.000000 -s 3 -x 36.912680 -y 68.728010 -U 0.000000 -V 0.000000 -T 0.000000
n -t 7.000000 -s 10 -x 0.535184 -y 38.499280 -U 0.000000 -V 0.000000 -T 0.000000
n -t 7.000000 -s 14 -x 47.268970 -y 23.436450 -U 0.000000 -V 0.000000 -T 0.000000
n -t 7.000000 -s 15 -x 14.580030 -y 64.256110 -U 0.000000 -V 0.000000 -T 0.000000
n -t 8.000000 -s 1 -x 10.075910 -y 44.830330 -U 0.000000 -V 0.000000 -T 0.000000
n -t 8.000000 -s 3 -x 36.912680 -y 68.728010 -U 0.000000 -V 0.000000 -T 0.000000
n -t 8.000000 -s 10 -x 0.535184 -y 38.499280 -U 0.000000 -V 0.000000 -T 0.000000
n -t 8.000000 -s 14 -x 47.268970 -y 23.436450 -U 0.000000 -V 0.000000 -T 0.000000
n -t 8.000000 -s 15 -x 14.580030 -y 64.256110 -U 0.000000 -V 0.000000 -T 0.000000
n -t 9.000000 -s 1 -x 10.075910 -y 44.830330 -U 0.000000 -V 0.000000 -T 0.000000
n -t 9.000000 -s 3 -x 36.912680 -y 68.728010 -U 0.000000 -V 0.000000 -T 0.000000
n -t 9.000000 -s 10 -x 0.535184 -y 38.499280 -U 0.000000 -V 0.000000 -T 0.000000
n -t 9.000000 -s 14 -x 47.268970 -y 23.436450 -U 0.000000 -V 0.000000 -T 0.000000
n -t 9.000000 -s 15 -x 14.580030 -y 64.256110 -U 0.000000 -V 0.000000 -T 0.000000
n -t 11.000000 -s 1 -x 10.075910 -y 44.830330 -U 0.822805 -V -0.568324 -T 11.435870
n -t 11.000000 -s 3 -x 36.912680 -y 68.728010 -U -0.371820 -V -0.928305 -T 30.805667
n -t 11.000000 -s 10 -x 0.535184 -y 38.499280 -U 0.991592 -V -0.129401 -T 18.259802
n -t 11.000000 -s 13 -x 12.659360 -y 35.955990 -U 0.999092 -V -0.042608 -T 5.950009
n -t 11.000000 -s 14 -x 47.268970 -y 23.436450 -U -0.891117 -V 0.453774 -T 21.561660
n -t 11.000000 -s 15 -x 14.580030 -y 64.256110 -U 0.299176 -V -0.954198 -T 25.147491
n -t 12.000000 -s 1 -x 10.898715 -y 44.262006 -U 0.834729 -V -0.550662 -T 11.069675
n -t 12.000000 -s 3 -x 36.540860 -y 67.799705 -U -0.353233 -V -0.935535 -T 29.618307
n -t 12.000000 -s 10 -x 1.526777 -y 38.369879 -U 0.991685 -V -0.128687 -T 17.976803
n -t 12.000000 -s 13 -x 13.658452 -y 35.913382 -U 0.998899 -V -0.046909 -T 5.665822
n -t 12.000000 -s 14 -x 46.377853 -y 23.890224 -U -0.886412 -V 0.462897 -T 19.892850
n -t 12.000000 -s 15 -x 14.879206 -y 63.301912 -U 0.320414 -V -0.947278 -T 24.441061
n -t 13.000000 -s 1 -x 11.733444 -y 43.711345 -U 0.846075 -V -0.533064 -T 10.710429
n -t 13.000000 -s 3 -x 36.187627 -y 66.864170 -U -0.333741 -V -0.942665 -T 28.445073
n -t 13.000000 -s 10 -x 2.518462 -y 38.241191 -U 0.991776 -V -0.127987 -T 17.693816
n -t 13.000000 -s 13 -x 14.657351 -y 35.866473 -U 0.998697 -V -0.051031 -T 5.381816
n -t 13.000000 -s 14 -x 45.491441 -y 24.353121 -U -0.881126 -V 0.472881 -T 18.226869
n -t 13.000000 -s 15 -x 15.199620 -y 62.354634 -U 0.341783 -V -0.939779 -T 23.749275
n -t 14.000000 -s 1 -x 12.579518 -y 43.178280 -U 0.856847 -V -0.515570 -T 10.357728
n -t 14.000000 -s 3 -x 35.853886 -y 65.921505 -U -0.313292 -V -0.949657 -T 27.286619
n -t 14.000000 -s 10 -x 3.510238 -y 38.113204 -U 0.991864 -V -0.127300 -T 17.410840
n -t 14.000000 -s 13 -x 15.656048 -y 35.815441 -U 0.998488 -V -0.054976 -T 5.097971
n -t 14.000000 -s 14 -x 44.610315 -y 24.826002 -U -0.875138 -V 0.483873 -T 16.564103
n -t 14.000000 -s 15 -x 15.541403 -y 61.414856 -U 0.363255 -V -0.931690 -T 23.072172
n -t 15.000000 -s 1 -x 13.436366 -y 42.662710 -U 0.867053 -V -0.498215 -T 10.011173
n -t 15.000000 -s 3 -x 35.540594 -y 64.971848 -U -0.291833 -V -0.956469 -T 26.143635
n -t 15.000000 -s 10 -x 4.502102 -y 37.985904 -U 0.991950 -V -0.126627 -T 17.127874
n -t 15.000000 -s 13 -x 16.654536 -y 35.760465 -U 0.998273 -V -0.058746 -T 4.814269
n -t 15.000000 -s 14 -x 43.735177 -y 25.309876 -U -0.868289 -V 0.496058 -T 14.905022
n -t 15.000000 -s 15 -x 15.904657 -y 60.483166 -U 0.384797 -V -0.923001 -T 22.409768
n -t 15.000000 -s 1 -x 13.436366 -y 42.662710 -U 0.000000 -V 0.000000 -T 0.000000
n -t 15.000000 -s 3 -x 35.540594 -y 64.971848 -U 0.000000 -V 0.000000 -T 0.000000
n -t 15.000000 -s 10 -x 4.502102 -y 37.985904 -U 0.000000 -V 0.000000 -T 0.000000
n -t 15.000000 -s 14 -x 43.735177 -y 25.309876 -U 0.000000 -V 0.000000 -T 0.000000
n -t 15.000000 -s 15 -x 15.904657 -y 60.483166 -U 0.000000 -V 0.000000 -T 0.000000
n -t 16.000000 -s 1 -x 13.436366 -y 42.662710 -U 0.000000 -V 0.000000 -T 0.000000
n -t 16.000000 -s 3 -x 35.540594 -y 64.971848 -U 0.000000 -V 0.000000 -T 0.000000
n -t 16.000000 -s 10 -x 4.502102 -y 37.985904 -U 0.000000 -V 0.000000 -T 0.000000
n -t 16.000000 -s 14 -x 43.735177 -y 25.309876 -U 0.000000 -V 0.000000 -T 0.000000
n -t 16.000000 -s 15 -x 15.904657 -y 60.483166 -U 0.000000 -V 0.000000 -T 0.000000
n -t 17.000000 -s 1 -x 13.436366 -y 42.662710 -U 0.000000 -V 0.000000 -T 0.000000
n -t 17.000000 -s 3 -x 35.540594 -y 64.971848 -U 0.000000 -V 0.000000 -T 0.000000
n -t 17.000000 -s 10 -x 4.502102 -y 37.985904 -U 0.000000 -V 0.000000 -T 0.000000
n -t 17.000000 -s 14 -x 43.735177 -y 25.309876 -U 0.000000 -V 0.000000 -T 0.000000
n -t 17.000000 -s 15 -x 15.904657 -y 60.483166 -U 0.000000 -V 0.000000 -T 0.000000
n -t 18.000000 -s 1 -x 13.436366 -y 42.662710 -U 0.000000 -V 0.000000 -T 0.000000
n -t 18.000000 -s 3 -x 35.540594 -y 64.971848 -U 0.000000 -V 0.000000 -T 0.000000
n -t 18.000000 -s 10 -x 4.502102 -y 37.985904 -U 0.000000 -V 0.000000 -T 0.000000
n -t 18.000000 -s 14 -x 43.735177 -y 25.309876 -U 0.000000 -V 0.000000 -T 0.000000
n -t 18.000000 -s 15 -x 15.904657 -y 60.483166 -U 0.000000 -V 0.000000 -T 0.000000
n -t 19.000000 -s 1 -x 13.436366 -y 42.662710 -U 0.000000 -V 0.000000 -T 0.000000
n -t 19.000000 -s 3 -x 35.540594 -y 64.971848 -U 0.000000 -V 0.000000 -T 0.000000
n -t 19.000000 -s 10 -x 4.502102 -y 37.985904 -U 0.000000 -V 0.000000 -T 0.000000
n -t 19.000000 -s 14 -x 43.735177 -y 25.309876 -U 0.000000 -V 0.000000 -T 0.000000
n -t 19.000000 -s 15 -x 15.904657 -y 60.483166 -U 0.000000 -V 0.000000 -T 0.000000
n -t 20.000000 -s 1 -x 13.436366 -y 42.662710 -U 0.000000 -V 0.000000 -T 0.000000
n -t 20.000000 -s 3 -x 35.540594 -y 64.971848 -U 0.000000 -V 0.000000 -T 0.000000
n -t 20.000000 -s 10 -x 4.502102 -y 37.985904 -U 0.000000 -V 0.000000 -T 0.000000
n -t 20.000000 -s 14 -x 43.735177 -y 25.309876 -U 0.000000 -V 0.000000 -T 0.000000
n -t 20.000000 -s 15 -x 15.904657 -y 60.483166 -U 0.000000 -V 0.000000 -T 0.000000
n -t 21.000000 -s 1 -x 13.436366 -y 42.662710 -U 0.000000 -V 0.000000 -T 0.000000
n -t 21.000000 -s 3 -x 35.540594 -y 64.971848 -U 0.000000 -V 0.000000 -T 0.000000
n -t 21.000000 -s 10 -x 4.502102 -y 37.985904 -U 0.000000 -V 0.000000 -T 0.000000
n -t 21.000000 -s 14 -x 43.735177 -y 25.309876 -U 0.000000 -V 0.000000 -T 0.000000
n -t 21.000000 -s 15 -x 15.904657 -y 60.483166 -U 0.000000 -V 0.000000 -T 0.000000
n -t 23.000000 -s 0 -x 73.422440 -y 42.099490 -U -0.983770 -V -0.179433 -T 36.946509
n -t 23.000000 -s 1 -x 13.436366 -y 42.662710 -U 0.917955 -V -0.396685 -T 15.393548
n -t 23.000000 -s 3 -x 35.540594 -y 64.971848 -U -0.110632 -V -0.993861 -T 25.586721
n -t 23.000000 -s 5 -x 68.492240 -y 43.127770 -U -0.973385 -V -0.229175 -T 32.329027
n -t 23.000000 -s 6 -x 65.805210 -y 14.815770 -U -0.862338 -V 0.506332 -T 34.020055
n -t 23.000000 -s 8 -x 56.384570 -y 2.052976 -U -0.597439 -V 0.801914 -T 35.552847
n -t 23.000000 -s 10 -x 4.502102 -y 37.985904 -U 0.992470 -V -0.122487 -T 22.864430
n -t 23.000000 -s 13 -x 21.460491 -y 35.477647 -U 0.996442 -V -0.084286 -T 5.734424
n -t 23.000000 -s 14 -x 43.735177 -y 25.309876 -U -0.780861 -V 0.624705 -T 9.827815
n -t 23.000000 -s 15 -x 15.904657 -y 60.483166 -U 0.531365 -V -0.847143 -T 25.585487
n -t 24.000000 -s 0 -x 72.438670 -y 41.920057 -U -0.982852 -V -0.184394 -T 35.259192
n -t 24.000000 -s 1 -x 14.354320 -y 42.266025 -U 0.922106 -V -0.386936 -T 15.079574
n -t 24.000000 -s 3 -x 35.429962 -y 63.977987 -U -0.086513 -V -0.996251 -T 24.592430
n -t 24.000000 -s 5 -x 67.518855 -y 42.898595 -U -0.971835 -V -0.235662 -T 30.653195
n -t 24.000000 -s 6 -x 64.942872 -y 15.322102 -U -0.858311 -V 0.513129 -T 32.367608
n -t 24.000000 -s 8 -x 55.787131 -y 2.854890 -U -0.586584 -V 0.809888 -T 34.069104
n -t 24.000000 -s 10 -x 5.494572 -y 37.863417 -U 0.992521 -V -0.122071 -T 22.581526
n -t 24.000000 -s 13 -x 22.456932 -y 35.393361 -U 0.996311 -V -0.085811 -T 5.451444
n -t 24.000000 -s 14 -x 42.954316 -y 25.934581 -U -0.762308 -V 0.647214 -T 8.228891
n -t 24.000000 -s 15 -x 16.436023 -y 59.636023 -U 0.547166 -V -0.837024 -T 25.034398
n -t 25.000000 -s 0 -x 71.455817 -y 41.735663 -U -0.981851 -V -0.189655 -T 33.572950
n -t 25.000000 -s 1 -x 15.276427 -y 41.879088 -U 0.926079 -V -0.377330 -T 14.767758
n -t 25.000000 -s 3 -x 35.343449 -y 62.981736 -U -0.061522 -V -0.998106 -T 23.615814
n -t 25.000000 -s 5 -x 66.547020 -y 42.662933 -U -0.970130 -V -0.242585 -T 28.979035
n -t 25.000000 -s 6 -x 64.084560 -y 15.835231 -U -0.853966 -V 0.520329 -T 30.717610
n -t 25.000000 -s 8 -x 55.200547 -y 3.664779 -U -0.575048 -V 0.818120 -T 32.592723
n -t 25.000000 -s 10 -x 6.487093 -y 37.741346 -U 0.992572 -V -0.121662 -T 22.298626
n -t 25.000000 -s 13 -x 23.453244 -y 35.307549 -U 0.996185 -V -0.087272 -T 5.168486
n -t 25.000000 -s 14 -x 42.192008 -y 26.581795 -U -0.739431 -V 0.673232 -T 6.642837
n -t 25.000000 -s 15 -x 16.983189 -y 58.798999 -U 0.562823 -V -0.826578 -T 24.493742
n -t 26.000000 -s 0 -x 70.473967 -y 41.546008 -U -0.980754 -V -0.195247 -T 31.887869
n -t 26.000000 -s 1 -x 16.202506 -y 41.501759 -U 0.929877 -V -0.367870 -T 14.457983
n -t 26.000000 -s 3 -x 35.281926 -y 61.983630 -U -0.035646 -V -0.999364 -T 22.657457
n -t 26.000000 -s 5 -x 65.576889 -y 42.420348 -U -0.968246 -V -0.249998 -T 27.306701
n -t 26.000000 -s 6 -x 63.230594 -y 16.355560 -U -0.849261 -V 0.527973 -T 29.070271
n -t 26.000000 -s 7 -x 59.219920 -y 68.438980 -U -0.590142 -V -0.807299 -T 37.233689
n -t 26.000000 -s 8 -x 54.625499 -y 4.482899 -U -0.562766 -V 0.826616 -T 31.124193
n -t 26.000000 -s 10 -x 7.479665 -y 37.619684 -U 0.992621 -V -0.121260 -T 22.015731
n -t 26.000000 -s 13 -x 24.449428 -y 35.220278 -U 0.996061 -V -0.088668 -T 4.885549
n -t 26.000000 -s 14 -x 41.452577 -y 27.255027 -U -0.710465 -V 0.703733 -T 5.073034
n -t 26.000000 -s 15 -x 17.546011 -y 57.972421 -U 0.578317 -V -0.815812 -T 23.963383
n -t 26.000000 -s 0 -x 70.473967 -y 41.546008 -U 0.000000 -V 0.000000 -T 0.000000
n -t 26.000000 -s 1 -x 16.202506 -y 41.501759 -U 0.000000 -V 0.000000 -T 0.000000
n -t 26.000000 -s 3 -x 35.281926 -y 61.983630 -U 0.000000 -V 0.000000 -T 0.000000
n -t 26.000000 -s 5 -x 65.576889 -y 42.420348 -U 0.000000 -V 0.000000 -T 0.000000
n -t 26.000000 -s 6 -x 63.230594 -y 16.355560 -U 0.000000 -V 0.000000 -T 0.000000
n -t 26.000000 -s 7 -x 59.219920 -y 68.438980 -U 0.000000 -V 0.000000 -T 0.000000
n -t 26.000000 -s 8 -x 54.625499 -y 4.482899 -U 0.000000 -V 0.000000 -T 0.000000
n -t 26.000000 -s 10 -x 7.479665 -y 37.619684 -U 0.000000 -V 0.000000 -T 0.000000
n -t 26.000000 -s 14 -x 41.452577 -y 27.255027 -U 0.000000 -V 0.000000 -T 0.000000
n -t 26.000000 -s 15 -x 17.546011 -y 57.972421 -U 0.000000 -V 0.000000 -T 0.000000
n -t 27.000000 -s 0 -x 70.473967 -y 41.546008 -U 0.000000 -V 0.000000 -T 0.000000
n -t 27.000000 -s 1 -x 16.202506 -y 41.501759 -U 0.000000 -V 0.000000 -T 0.000000
n -t 27.000000 -s 3 -x 35.281926 -y 61.983630 -U 0.000000 -V 0.000000 -T 0.000000
n -t 27.000000 -s 5 -x 65.576889 -y 42.420348 -U 0.000000 -V 0.000000 -T 0.000000
n -t 27.000000 -s 6 -x 63.230594 -y 16.355560 -U 0.000000 -V 0.000000 -T 0.000000
n -t 27.000000 -s 7 -x 59.219920 -y 68.438980 -U 0.000000 -V 0.000000 -T 0.000000
n -t 27.000000 -s 