n -t * -s 0  -x 13.84207 -y 37.167310000000001 -Z 0 -z 1  -v circle -c black
n -t * -s 1  -x 14.87663 -y 56.488149999999997 -Z 0 -z 1  -v circle -c black
n -t * -s 2  -x 23.84516 -y 42.382800000000003 -Z 0 -z 1  -v circle -c black
n -t * -s 3  -x 83.747280000000003 -y 45.38767 -Z 0 -z 1  -v circle -c black
n -t * -s 4  -x 99.399050000000003 -y 23.294799999999999 -Z 0 -z 1  -v circle -c black
n -t * -s 5  -x 57.734569999999998 -y 65.253609999999995 -Z 0 -z 1  -v circle -c black
n -t * -s 6  -x 34.909660000000002 -y 65.853020000000001 -Z 0 -z 1  -v circle -c black
n -t * -s 7  -x 84.020079999999993 -y 61.981430000000003 -Z 0 -z 1  -v circle -c black
n -t * -s 8  -x 84.771180000000001 -y 50.478520000000003 -Z 0 -z 1  -v circle -c black
n -t * -s 9  -x 16.2819 -y 48.517690000000002 -Z 0 -z 1  -v circle -c black
n -t * -s 10  -x 78.128100000000003 -y 42.180959999999999 -Z 0 -z 1  -v circle -c black
n -t * -s 11  -x 25.437529999999999 -y 48.001950000000001 -Z 0 -z 1  -v circle -c black
n -t * -s 12  -x 97.509209999999996 -y 35.983429999999998 -Z 0 -z 1  -v circle -c black
n -t * -s 13  -x 35.976379999999999 -y 27.797930000000001 -Z 0 -z 1  -v circle -c black
n -t * -s 14  -x 72.271420000000006 -y 58.789250000000003 -Z 0 -z 1  -v circle -c black
n -t * -s 15  -x 14.89181 -y 0.76274770000000003 -Z 0 -z 1  -v circle -c black
n -t * -s 16  -x 98.045730000000006 -y 60.593330000000002 -Z 0 -z 1  -v circle -c black
n -t * -s 17  -x 97.032200000000003 -y 98.744079999999997 -Z 0 -z 1  -v circle -c black
n -t * -s 18  -x 83.625290000000007 -y 65.479349999999997 -Z 0 -z 1  -v circle -c black
n -t * -s 19  -x 65.689210000000003 -y 16.560400000000001 -Z 0 -z 1  -v circle -c black
n -t * -s 20  -x 37.550490000000003 -y 35.194659999999999 -Z 0 -z 2  -v circle -c black
V -t * -v 1.0a5 -a 0
W -t * -x 100 -y 100
A -t * -n 1 -p 0 -o 0x7fffffff -c 30 -a 1
A -t * -h 1 -m 1073741823 -s 0
n -t 0 -s 20 -S COLOR -c red -o black -i red -I black
n -t 0.000000 -s 20 -x 37.550490 -y 35.194660 -U -0.886656 -V 0.752669 -T 36.866470
n -t 3.000000 -s 0 -x 13.842070 -y 37.167310 -U 0.999908 -V 0.013556 -T 16.050386
n -t 3.000000 -s 1 -x 14.876630 -y 56.488150 -U 0.724596 -V -0.689173 -T 22.620744
n -t 3.000000 -s 2 -x 23.845160 -y 42.382800 -U 0.913163 -V -0.407594 -T 7.095712
n -t 3.000000 -s 5 -x 57.734570 -y 65.253610 -U -0.634865 -V -0.772623 -T 30.982537
n -t 3.000000 -s 6 -x 34.909660 -y 65.853020 -U -0.000674 -V -1.000000 -T 23.400360
n -t 3.000000 -s 9 -x 16.281900 -y 48.517690 -U 0.859527 -V -0.511090 -T 16.649840
n -t 3.000000 -s 11 -x 25.437530 -y 48.001950 -U 0.667350 -V -0.744744 -T 9.164973
n -t 3.000000 -s 13 -x 35.976380 -y 27.797930 -U -0.111764 -V 0.993735 -T 4.715607
n -t 3.000000 -s 15 -x 14.891810 -y 0.762748 -U 0.478594 -V 0.878036 -T 36.786345
n -t 3.000000 -s 19 -x 65.689210 -y 16.560400 -U -0.827561 -V 0.561376 -T 32.216206
n -t 3.000000 -s 0 -x 13.842070 -y 37.167310 -U 0.000000 -V 0.000000 -T 0.000000
n -t 3.000000 -s 1 -x 14.876630 -y 56.488150 -U 0.000000 -V 0.000000 -T 0.000000
n -t 3.000000 -s 2 -x 23.845160 -y 42.382800 -U 0.000000 -V 0.000000 -T 0.000000
n -t 3.000000 -s 5 -x 57.734570 -y 65.253610 -U 0.000000 -V 0.000000 -T 0.000000
n -t 3.000000 -s 6 -x 34.909660 -y 65.853020 -U 0.000000 -V 0.000000 -T 0.000000
n -t 3.000000 -s 9 -x 16.281900 -y 48.517690 -U 0.000000 -V 0.000000 -T 0.000000
n -t 3.000000 -s 11 -x 25.437530 -y 48.001950 -U 0.000000 -V 0.000000 -T 0.000000
n -t 3.000000 -s 15 -x 14.891810 -y 0.762748 -U 0.000000 -V 0.000000 -T 0.000000
n -t 3.000000 -s 19 -x 65.689210 -y 16.560400 -U 0.000000 -V 0.000000 -T 0.000000
n -t 4.000000 -s 0 -x 13.842070 -y 37.167310 -U 0.000000 -V 0.000000 -T 0.000000
n -t 4.000000 -s 1 -x 14.876630 -y 56.488150 -U 0.000000 -V 0.000000 -T 0.000000
n -t 4.000000 -s 2 -x 23.845160 -y 42.382800 -U 0.000000 -V 0.000000 -T 0.000000
n -t 4.000000 -s 5 -x 57.734570 -y 65.253610 -U 0.000000 -V 0.000000 -T 0.000000
n -t 4.000000 -s 6 -x 34.909660 -y 65.853020 -U 0.000000 -V 0.000000 -T 0.000000
n -t 4.000000 -s 9 -x 16.281900 -y 48.517690 -U 0.000000 -V 0.000000 -T 0.000000
n -t 4.000000 -s 11 -x 25.437530 -y 48.001950 -U 0.000000 -V 0.000000 -T 0.000000
n -t 4.000000 -s 15 -x 14.891810 -y 0.762748 -U 0.000000 -V 0.000000 -T 0.000000
n -t 4.000000 -s 19 -x 65.689210 -y 16.560400 -U 0.000000 -V 0.000000 -T 0.000000
n -t 5.000000 -s 0 -x 13.842070 -y 37.167310 -U 0.000000 -V 0.000000 -T 0.000000
n -t 5.000000 -s 1 -x 14.876630 -y 56.488150 -U 0.000000 -V 0.000000 -T 0.000000
n -t 5.000000 -s 2 -x 23.845160 -y 42.382800 -U 0.000000 -V 0.000000 -T 0.000000
n -t 5.000000 -s 5 -x 57.734570 -y 65.253610 -U 0.000000 -V 0.000000 -T 0.000000
n -t 5.000000 -s 6 -x 34.909660 -y 65.853020 -U 0.000000 -V 0.000000 -T 0.000000
n -t 5.000000 -s 9 -x 16.281900 -y 48.517690 -U 0.000000 -V 0.000000 -T 0.000000
n -t 5.000000 -s 11 -x 25.437530 -y 48.001950 -U 0.000000 -V 0.000000 -T 0.000000
n -t 5.000000 -s 15 -x 14.891810 -y 0.762748 -U 0.000000 -V 0.000000 -T 0.000000
n -t 5.000000 -s 19 -x 65.689210 -y 16.560400 -U 0.000000 -V 0.000000 -T 0.000000
n -t 6.000000 -s 0 -x 13.842070 -y 37.167310 -U 0.000000 -V 0.000000 -T 0.000000
n -t 6.000000 -s 1 -x 14.876630 -y 56.488150 -U 0.000000 -V 0.000000 -T 0.000000
n -t 6.000000 -s 5 -x 57.734570 -y 65.253610 -U 0.000000 -V 0.000000 -T 0.000000
n -t 6.000000 -s 6 -x 34.909660 -y 65.853020 -U 0.000000 -V 0.000000 -T 0.000000
n -t 6.000000 -s 9 -x 16.281900 -y 48.517690 -U 0.000000 -V 0.000000 -T 0.000000
n -t 6.000000 -s 11 -x 25.437530 -y 48.001950 -U 0.000000 -V 0.000000 -T 0.000000
n -t 6.000000 -s 13 -x 35.641087 -y 30.779134 -U 0.000000 -V 0.000000 -T 0.000000
n -t 6.000000 -s 15 -x 14.891810 -y 0.762748 -U 0.000000 -V 0.000000 -T 0.000000
n -t 6.000000 -s 19 -x 65.689210 -y 16.560400 -U 0.000000 -V 0.000000 -T 0.000000
n -t 7.000000 -s 0 -x 13.842070 -y 37.167310 -U 0.000000 -V 0.000000 -T 0.000000
n -t 7.000000 -s 1 -x 14.876630 -y 56.488150 -U 0.000000 -V 0.000000 -T 0.000000
n -t 7.000000 -s 5 -x 57.734570 -y 65.253610 -U 0.000000 -V 0.000000 -T 0.000000
n -t 7.000000 -s 6 -x 34.909660 -y 65.853020 -U 0.000000 -V 0.000000 -T 0.000000
n -t 7.000000 -s 9 -x 16.281900 -y 48.517690 -U 0.000000 -V 0.000000 -T 0.000000
n -t 7.000000 -s 11 -x 25.437530 -y 48.001950 -U 0.000000 -V 0.000000 -T 0.000000
n -t 7.000000 -s 13 -x 35.641087 -y 30.779134 -U 0.000000 -V 0.000000 -T 0.000000
n -t 7.000000 -s 15 -x 14.891810 -y 0.762748 -U 0.000000 -V 0.000000 -T 0.000000
n -t 7.000000 -s 19 -x 65.689210 -y 16.560400 -U 0.000000 -V 0.000000 -T 0.000000
n -t 8.000000 -s 0 -x 13.842070 -y 37.167310 -U 0.000000 -V 0.000000 -T 0.000000
n -t 8.000000 -s 1 -x 14.876630 -y 56.488150 -U 0.000000 -V 0.000000 -T 0.000000
n -t 8.000000 -s 5 -x 57.734570 -y 65.253610 -U 0.000000 -V 0.000000 -T 0.000000
n -t 8.000000 -s 6 -x 34.909660 -y 65.853020 -U 0.000000 -V 0.000000 -T 0.000000
n -t 8.000000 -s 9 -x 16.281900 -y 48.517690 -U 0.000000 -V 0.000000 -T 0.000000
n -t 8.000000 -s 11 -x 25.437530 -y 48.001950 -U 0.000000 -V 0.000000 -T 0.000000
n -t 8.000000 -s 13 -x 35.641087 -y 30.779134 -U 0.000000 -V 0.000000 -T 0.000000
n -t 8.000000 -s 15 -x 14.891810 -y 0.762748 -U 0.000000 -V 0.000000 -T 0.000000
n -t 8.000000 -s 19 -x 65.689210 -y 16.560400 -U 0.000000 -V 0.000000 -T 0.000000
n -t 9.000000 -s 0 -x 13.842070 -y 37.167310 -U 0.000000 -V 0.000000 -T 0.000000
n -t 9.000000 -s 1 -x 14.876630 -y 56.488150 -U 0.000000 -V 0.000000 -T 0.000000
n -t 9.000000 -s 5 -x 57.734570 -y 65.253610 -U 0.000000 -V 0.000000 -T 0.000000
n -t 9.000000 -s 6 -x 34.909660 -y 65.853020 -U 0.000000 -V 0.000000 -T 0.000000
n -t 9.000000 -s 9 -x 16.281900 -y 48.517690 -U 0.000000 -V 0.000000 -T 0.000000
n -t 9.000000 -s 11 -x 25.437530 -y 48.001950 -U 0.000000 -V 0.000000 -T 0.000000
n -t 9.000000 -s 13 -x 35.641087 -y 30.779134 -U 0.000000 -V 0.000000 -T 0.000000
n -t 9.000000 -s 15 -x 14.891810 -y 0.762748 -U 0.000000 -V 0.000000 -T 0.000000
n -t 9.000000 -s 19 -x 65.689210 -y 16.560400 -U 0.000000 -V 0.000000 -T 0.000000
n -t 10.000000 -s 0 -x 13.842070 -y 37.167310 -U 0.000000 -V 0.000000 -T 0.000000
n -t 10.000000 -s 1 -x 14.876630 -y 56.488150 -U 0.000000 -V 0.000000 -T 0.000000
n -t 10.000000 -s 5 -x 57.734570 -y 65.253610 -U 0.000000 -V 0.000000 -T 0.000000
n -t 10.000000 -s 6 -x 34.909660 -y 65.853020 -U 0.000000 -V 0.000000 -T 0.000000
n -t 10.000000 -s 9 -x 16.281900 -y 48.517690 -U 0.000000 -V 0.000000 -T 0.000000
n -t 10.000000 -s 11 -x 25.437530 -y 48.001950 -U 0.000000 -V 0.000000 -T 0.000000
n -t 10.000000 -s 13 -x 35.641087 -y 30.779134 -U 0.000000 -V 0.000000 -T 0.000000
n -t 10.000000 -s 15 -x 14.891810 -y 0.762748 -U 0.000000 -V 0.000000 -T 0.000000
n -t 10.000000 -s 19 -x 65.689210 -y 16.560400 -U 0.000000 -V 0.000000 -T 0.000000
n -t 11.000000 -s 0 -x 13.842070 -y 37.167310 -U 0.000000 -V 0.000000 -T 0.000000
n -t 11.000000 -s 1 -x 14.876630 -y 56.488150 -U 0.000000 -V 0.000000 -T 0.000000
n -t 11.000000 -s 5 -x 57.734570 -y 65.253610 -U 0.000000 -V 0.000000 -T 0.000000
n -t 11.000000 -s 6 -x 34.909660 -y 65.853020 -U 0.000000 -V 0.000000 -T 0.000000
n -t 11.000000 -s 9 -x 16.281900 -y 48.517690 -U 0.000000 -V 0.000000 -T 0.000000
n -t 11.000000 -s 11 -x 25.437530 -y 48.001950 -U 0.000000 -V 0.000000 -T 0.000000
n -t 11.000000 -s 13 -x 35.641087 -y 30.779134 -U 0.000000 -V 0.000000 -T 0.000000
n -t 11.000000 -s 15 -x 14.891810 -y 0.762748 -U 0.000000 -V 0.000000 -T 0.000000
n -t 11.000000 -s 19 -x 65.689210 -y 16.560400 -U 0.000000 -V 0.000000 -T 0.000000
n -t 12.000000 -s 0 -x 13.842070 -y 37.167310 -U 0.000000 -V 0.000000 -T 0.000000
n -t 12.000000 -s 1 -x 14.876630 -y 56.488150 -U 0.000000 -V 0.000000 -T 0.000000
n -t 12.000000 -s 5 -x 57.734570 -y 65.253610 -U 0.000000 -V 0.000000 -T 0.000000
n -t 12.000000 -s 6 -x 34.909660 -y 65.853020 -U 0.000000 -V 0.000000 -T 0.000000
n -t 12.000000 -s 9 -x 16.281900 -y 48.517690 -U 0.000000 -V 0.000000 -T 0.000000
n -t 12.000000 -s 11 -x 25.437530 -y 48.001950 -U 0.000000 -V 0.000000 -T 0.000000
n -t 12.000000 -s 13 -x 35.641087 -y 30.779134 -U 0.000000 -V 0.000000 -T 0.000000
n -t 12.000000 -s 15 -x 14.891810 -y 0.762748 -U 0.000000 -V 0.000000 -T 0.000000
n -t 12.000000 -s 19 -x 65.689210 -y 16.560400 -U 0.000000 -V 0.000000 -T 0.000000
n -t 13.000000 -s 0 -x 13.842070 -y 37.167310 -U 0.000000 -V 0.000000 -T 0.000000
n -t 13.000000 -s 1 -x 14.876630 -y 56.488150 -U 0.000000 -V 0.000000 -T 0.000000
n -t 13.000000 -s 2 -x 23.845160 -y 42.382800 -U 0.000000 -V 0.000000 -T 0.000000
n -t 13.000000 -s 5 -x 57.734570 -y 65.253610 -U 0.000000 -V 0.000000 -T 0.000000
n -t 13.000000 -s 6 -x 34.909660 -y 65.853020 -U 0.000000 -V 0.000000 -T 0.000000
n -t 13.000000 -s 9 -x 16.281900 -y 48.517690 -U 0.000000 -V 0.000000 -T 0.000000
n -t 13.000000 -s 13 -x 35.641087 -y 30.779134 -U 0.000000 -V 0.000000 -T 0.000000
n -t 13.000000 -s 15 -x 14.891810 -y 0.762748 -U 0.000000 -V 0.000000 -T 0.000000
n -t 13.000000 -s 19 -x 65.689210 -y 16.560400 -U 0.000000 -V 0.000000 -T 0.000000
n -t 14.000000 -s 0 -x 13.842070 -y 37.167310 -U 0.000000 -V 0.000000 -T 0.000000
n -t 14.000000 -s 1 -x 14.876630 -y 56.488150 -U 0.000000 -V 0.000000 -T 0.000000
n -t 14.000000 -s 2 -x 23.845160 -y 42.382800 -U 0.000000 -V 0.000000 -T 0.000000
n -t 14.000000 -s 5 -x 57.734570 -y 65.253610 -U 0.000000 -V 0.000000 -T 0.000000
n -t 14.000000 -s 6 -x 34.909660 -y 65.853020 -U 0.000000 -V 0.000000 -T 0.000000
n -t 14.000000 -s 9 -x 16.281900 -y 48.517690 -U 0.000000 -V 0.000000 -T 0.000000
n -t 14.000000 -s 13 -x 35.641087 -y 30.779134 -U 0.000000 -V 0.000000 -T 0.000000
n -t 14.000000 -s 15 -x 14.891810 -y 0.762748 -U 0.000000 -V 0.000000 -T 0.000000
n -t 14.000000 -s 19 -x 65.689210 -y 16.560400 -U 0.000000 -V 0.000000 -T 0.000000
n -t 15.000000 -s 0 -x 13.842070 -y 37.167310 -U 0.000000 -V 0.000000 -T 0.000000
n -t 15.000000 -s 1 -x 14.876630 -y 56.488150 -U 0.000000 -V 0.000000 -T 0.000000
n -t 15.000000 -s 2 -x 23.845160 -y 42.382800 -U 0.000000 -V 0.000000 -T 0.000000
n -t 15.000000 -s 5 -x 57.734570 -y 65.253610 -U 0.000000 -V 0.000000 -T 0.000000
n -t 15.000000 -s 6 -x 34.909660 -y 65.853020 -U 0.000000 -V 0.000000 -T 0.000000
n -t 15.000000 -s 9 -x 16.281900 -y 48.517690 -U 0.000000 -V 0.000000 -T 0.000000
n -t 15.000000 -s 13 -x 35.641087 -y 30.779134 -U 0.000000 -V 0.000000 -T 0.000000
n -t 15.000000 -s 15 -x 14.891810 -y 0.762748 -U 0.000000 -V 0.000000 -T 0.000000
n -t 15.000000 -s 19 -x 65.689210 -y 16.560400 -U 0.000000 -V 0.000000 -T 0.000000
n -t 16.000000 -s 0 -x 13.842070 -y 37.167310 -U 0.000000 -V 0.000000 -T 0.000000
n -t 16.000000 -s 1 -x 14.876630 -y 56.488150 -U 0.000000 -V 0.000000 -T 0.000000
n -t 16.000000 -s 2 -x 23.845160 -y 42.382800 -U 0.000000 -V 0.000000 -T 0.000000
n -t 16.000000 -s 5 -x 57.734570 -y 65.253610 -U 0.000000 -V 0.000000 -T 0.000000
n -t 16.000000 -s 6 -x 34.909660 -y 65.853020 -U 0.000000 -V 0.000000 -T 0.000000
n -t 16.000000 -s 9 -x 16.281900 -y 48.517690 -U 0.000000 -V 0.000000 -T 0.000000
n -t 16.000000 -s 13 -x 35.641087 -y 30.779134 -U 0.000000 -V 0.000000 -T 0.000000
n -t 16.000000 -s 15 -x 14.891810 -y 0.762748 -U 0.000000 -V 0.000000 -T 0.000000
n -t 16.000000 -s 19 -x 65.689210 -y 16.560400 -U 0.000000 -V 0.000000 -T 0.000000
n -t 17.000000 -s 0 -x 13.842070 -y 37.167310 -U 0.000000 -V 0.000000 -T 0.000000
n -t 17.000000 -s 1 -x 14.876630 -y 56.488150 -U 0.000000 -V 0.000000 -T 0.000000
n -t 17.000000 -s 2 -x 23.845160 -y 42.382800 -U 0.000000 -V 0.000000 -T 0.000000
n -t 17.000000 -s 5 -x 57.734570 -y 65.253610 -U 0.000000 -V 0.000000 -T 0.000000
n -t 17.000000 -s 6 -x 34.909660 -y 65.853020 -U 0.000000 -V 0.000000 -T 0.000000
n -t 17.000000 -s 9 -x 16.281900 -y 48.517690 -U 0.000000 -V 0.000000 -T 0.000000
n -t 17.000000 -s 13 -x 35.641087 -y 30.779134 -U 0.000000 -V 0.000000 -T 0.000000
n -t 17.000000 -s 15 -x 14.891810 -y 0.762748 -U 0.000000 -V 0.000000 -T 0.000000
n -t 17.000000 -s 19 -x 65.689210 -y 16.560400 -U 0.000000 -V 0.000000 -T 0.000000
n -t 18.000000 -s 0 -x 13.842070 -y 37.167310 -U 0.000000 -V 0.000000 -T 0.000000
n -t 18.000000 -s 1 -x 14.876630 -y 56.488150 -U 0.000000 -V 0.000000 -T 0.000000
n -t 18.000000 -s 2 -x 23.845160 -y 42.382800 -U 0.000000 -V 0.000000 -T 0.000000
n -t 18.000000 -s 5 -x 57.734570 -y 65.253610 -U 0.000000 -V 0.000000 -T 0.000000
n -t 18.000000 -s 6 -x 34.909660 -y 65.853020 -U 0.000000 -V 0.000000 -T 0.000000
n -t 18.000000 -s 9 -x 16.281900 -y 48.517690 -U 0.000000 -V 0.000000 -T 0.000000
n -t 18.000000 -s 13 -x 35.641087 -y 30.779134 -U 0.000000 -V 0.000000 -T 0.000000
n -t 18.000000 -s 15 -x 14.891810 -y 0.762748 -U 0.000000 -V 0.000000 -T 0.000000
n -t 18.000000 -s 19 -x 65.689210 -y 16.560400 -U 0.000000 -V 0.000000 -T 0.000000
n -t 19.000000 -s 0 -x 13.842070 -y 37.167310 -U 0.000000 -V 0.000000 -T 0.000000
n -t 19.000000 -s 1 -x 14.876630 -y 56.488150 -U 0.000000 -V 0.000000 -T 0.000000
n -t 19.000000 -s 2 -x 23.845160 -y 42.382800 -U 0.000000 -V 0.000000 -T 0.000000
n -t 19.000000 -s 5 -x 57.734570 -y 65.253610 -U 0.000000 -V 0.000000 -T 0.000000
n -t 19.000000 -s 6 -x 34.909660 -y 65.853020 -U 0.000000 -V 0.000000 -T 0.000000
n -t 19.000000 -s 11 -x 25.437530 -y 48.001950 -U 0.000000 -V 0.000000 -T 0.000000
n -t 19.000000 -s 13 -x 35.641087 -y 30.779134 -U 0.000000 -V 0.000000 -T 0.000000
n -t 19.000000 -s 15 -x 14.891810 -y 0.762748 -U 0.000000 -V 0.000000 -T 0.000000
n -t 19.000000 -s 19 -x 65.689210 -y 16.560400 -U 0.000000 -V 0.000000 -T 0.000000
n -t 20.000000 -s 0 -x 13.842070 -y 37.167310 -U 0.000000 -V 0.000000 -T 0.000000
n -t 20.000000 -s 1 -x 14.876630 -y 56.488150 -U 0.000000 -V 0.000000 -T 0.000000
n -t 20.000000 -s 2 -x 23.845160 -y 42.382800 -U 0.000000 -V 0.000000 -T 0.000000
n -t 20.000000 -s 5 -x 57.734570 -y 65.253610 -U 0.000000 -V 0.000000 -T 0.000000
n -t 20.000000 -s 6 -x 34.909660 -y 65.853020 -U 0.000000 -V 0.000000 -T 0.000000
n -t 20.000000 -s 11 -x 25.437530 -y 48.001950 -U 0.000000 -V 0.000000 -T 0.000000
n -t 20.000000 -s 13 -x 35.641087 -y 30.779134 -U 0.000000 -V 0.000000 -T 0.000000
n -t 20.000000 -s 15 -x 14.891810 -y 0.762748 -U 0.000000 -V 0.000000 -T 0.000000
n -t 20.000000 -s 19 -x 65.689210 -y 16.560400 -U 0.000000 -V 0.000000 -T 0.000000
n -t 21.000000 -s 0 -x 13.842070 -y 37.167310 -U 0.000000 -V 0.000000 -T 0.000000
n -t 21.000000 -s 1 -x 14.876630 -y 56.488150 -U 0.000000 -V 0.000000 -T 0.000000
n -t 21.000000 -s 2 -x 23.845160 -y 42.382800 -U 0.000000 -V 0.000000 -T 0.000000
n -t 21.000000 -s 5 -x 57.734570 -y 65.253610 -U 0.000000 -V 0.000000 -T 0.000000
n -t 21.000000 -s 6 -x 34.909660 -y 65.853020 -U 0.000000 -V 0.000000 -T 0.000000
n -t 21.000000 -s 11 -x 25.437530 -y 48.001950 -U 0.000000 -V 0.000000 -T 0.000000
n -t 21.000000 -s 13 -x 35.641087 -y 30.779134 -U 0.000000 -V 0.000000 -T 0.000000
n -t 21.000000 -s 15 -x 14.891810 -y 0.762748 -U 0.000000 -V 0.000000 -T 0.000000
n -t 21.000000 -s 19 -x 65.689210 -y 16.560400 -U 0.000000 -V 0.000000 -T 0.000000
n -t 22.000000 -s 0 -x 13.842070 -y 37.167310 -U 0.000000 -V 0.000000 -T 0.000000
n -t 22.000000 -s 1 -x 14.876630 -y 56.488150 -U 0.000000 -V 0.000000 -T 0.000000
n -t 22.000000 -s 2 -x 23.845160 -y 42.382800 -U 0.000000 -V 0.000000 -T 0.000000
n -t 22.000000 -s 5 -x 57.734570 -y 65.253610 -U 0.000000 -V 0.000000 -T 0.000000
n -t 22.000000 -s 6 -x 34.909660 -y 65.853020 -U 0.000000 -V 0.000000 -T 0.000000
n -t 22.000000 -s 11 -x 25.437530 -y 48.001950 -U 0.000000 -V 0.000000 -T 0.000000
n -t 22.000000 -s 13 -x 35.641087 -y 30.779134 -U 0.000000 -V 0.000000 -T 0.000000
n -t 22.000000 -s 15 -x 14.891810 -y 0.762748 -U 0.000000 -V 0.000000 -T 0.000000
n -t 22.000000 -s 19 -x 65.689210 -y 16.560400 -U 0.000000 -V 0.000000 -T 0.000000
n -t 23.000000 -s 0 -x 13.842070 -y 37.167310 -U 0.000000 -V 0.000000 -T 0.000000
n -t 23.000000 -s 1 -x 14.876630 -y 56.488150 -U 0.000000 -V 0.000000 -T 0.000000
n -t 23.000000 -s 2 -x 23.845160 -y 42.382800 -U 0.000000 -V 0.000000 -T 0.000000
n -t 23.000000 -s 5 -x 57.734570 -y 65.253610 -U 0.000000 -V 0.000000 -T 0.000000
n -t 23.000000 -s 6 -x 34.909660 -y 65.853020 -U 0.000000 -V 0.000000 -T 0.000000
n -t 23.000000 -s 11 -x 25.437530 -y 48.001950 -U 0.000000 -V 0.000000 -T 0.000000
n -t 23.000000 -s 13 -x 35.641087 -y 30.779134 -U 0.000000 -V 0.000000 -T 0.000000
n -t 23.000000 -s 15 -x 14.891810 -y 0.762748 -U 0.000000 -V 0.000000 -T 0.000000
n -t 23.000000 -s 19 -x 65.689210 -y 16.560400 -U 0.000000 -V 0.000000 -T 0.000000
n -t 24.000000 -s 0 -x 13.842070 -y 37.167310 -U 0.000000 -V 0.000000 -T 0.000000
n -t 24.000000 -s 2 -x 23.845160 -y 42.382800 -U 0.000000 -V 0.000000 -T 0.000000
n -t 24.000000 -s 5 -x 57.734570 -y 65.253610 -U 0.000000 -V 0.000000 -T 0.000000
n -t 24.000000 -s 6 -x 34.909660 -y 65.853020 -U 0.000000 -V 0.000000 -T 0.000000
n -t 24.000000 -s 9 -x 16.281900 -y 48.517690 -U 0.000000 -V 0.000000 -T 0.000000
n -t 24.000000 -s 11 -x 25.437530 -y 48.001950 -U 0.000000 -V 0.000000 -T 0.000000
n -t 24.000000 -s 13 -x 35.641087 -y 30.779134 -U 0.000000 -V 0.000000 -T 0.000000
n -t 24.000000 -s 15 -x 14.891810 -y 0.762748 -U 0.000000 -V 0.000000 -T 0.000000
n -t 24.000000 -s 19 -x 65.689210 -y 16.560400 -U 0.000000 -V 0.000000 -T 0.000000
n -t 25.000000 -s 0 -x 13.842070 -y 37.167310 -U 0.000000 -V 0.000000 -T 0.000000
n -t 25.000000 -s 2 -x 23.845160 -y 42.382800 -U 0.000000 -V 0.000000 -T 0.000000
n -t 25.000000 -s 5 -x 57.734570 -y 65.253610 -U 0.000000 -V 0.000000 -T 0.000000
n -t 25.000000 -s 6 -x 34.909660 -y 65.853020 -U 0.000000 -V 0.000000 -T 0.000000
n -t 25.000000 -s 9 -x 16.281900 -y 48.517690 -U 0.000000 -V 0.000000 -T 0.000000
n -t 25.000000 -s 11 -x 25.437530 -y 48.001950 -U 0.000000 -V 0.000000 -T 0.000000
n -t 25.000000 -s 13 -x 35.641087 -y 30.779134 -U 0.000000 -V 0.000000 -T 0.000000
n -t 25.000000 -s 15 -x 14.891810 -y 0.762748 -U 0.000000 -V 0.000000 -T 0.000000
n -t 25.000000 -s 19 -x 65.689210 -y 16.560400 -U 0.000000 -V 0.000000 -T 0.000000
n -t 26.000000 -s 0 -x 13.842070 -y 37.167310 -U 0.000000 -V 0.000000 -T 0.000000
n -t 26.000000 -s 2 -x 23.845160 -y 42.382800 -U 0.000000 -V 0.000000 -T 0.000000
n -t 26.000000 -s 5 -x 57.734570 -y 65.253610 -U 0.000000 -V 0.000000 -T 0.000000
n -t 26.000000 -s 6 -x 34.909660 -y 65.853020 -U 0.000000 -V 0.000000 -T 0.000000
n -t 26.000000 -s 9 -x 16.281900 -y 48.517690 -U 0.000000 -V 0.000000 -T 0.000000
n -t 26.000000 -s 11 -x 25.437530 -y 48.001950 -U 0.000000 -V 0.000000 -T 0.000000
n -t 26.000000 -s 13 -x 35.641087 -y 30.779134 -U 0.000000 -V 0.000000 -T 0.000000
n -t 26.000000 -s 15 -x 14.891810 -y 0.762748 -U 0.000000 -V 0.000000 -T 0.000000
n -t 26.000000 -s 19 -x 65.689210 -y 16.560400 -U 0.000000 -V 0.000000 -T 0.000000
n -t 27.000000 -s 0 -x 13.842070 -y 37.167310 -U 0.000000 -V 0.000000 -T 0.000000
n -t 27.000000 -s 2 -x 23.845160 -y 42.382800 -U 0.000000 -V 0.000000 -T 0.000000
n -t 27.000000 -s 5 -x 57.734570 -y 65.253610 -U 0.000000 -V 0.000000 -T 0.000000
n -t 27.000000 -s 6 -x 34.909660 -y 65.853020 -U 0.000000 -V 0.000000 -T 0.000000
n -t 27.000000 -s 9 -x 16.281900 -y 48.517690 -U 0.000000 -V 0.000000 -T 0.000000
n -t 27.000000 -s 11 -x 25.437530 -y 48.001950 -U 0.000000 -V 0.000000 -T 0.000000
n -t 27.000000 -s 13 -x 35.641087 -y 30.779134 -U 0.000000 -V 0.000000 -T 0.000000
n -t 27.000000 -s 15 -x 14.891810 -y 0.762748 -U 0.000000 -V 0.000000 -T 0.000000
n -t 27.000000 -s 19 -x 65.689210 -y 16.560400 -U 0.000000 -V 0.000000 -T 0.000000
n -t 28.000000 -s 0 -x 13.842070 -y 37.167310 -U 0.000000 -V 0.000000 -T 0.000000
n -t 28.000000 -s 2 -x 23.845160 -y 42.382800 -U 0.000000 -V 0.000000 -T 0.000000
n -t 28.000000 -s 5 -x 57.734570 -y 65.253610 -U 0.000000 -V 0.000000 -T 0.000000
n -t 28.000000 -s 6 -x 34.909660 -y 65.853020 -U 0.000000 -V 0.000000 -T 0.000000
n -t 28.000000 -s 9 -x 16.281900 -y 48.517690 -U 0.000000 -V 0.000000 -T 0.000000
n -t 28.000000 -s 11 -x 25.437530 -y 48.001950 -U 0.000000 -V 0.000000 -T 0.000000
n -t 28.000000 -s 13 -x 35.641087 -y 30.779134 -U 0.000000 -V 0.000000 -T 0.000000
n -t 28.000000 -s 15 -x 14.891810 -y 0.762748 -U 0.000000 -V 0.000000 -T 0.000000
n -t 28.000000 -s 19 -x 65.689210 -y 16.560400 -U 0.000000 -V 0.000000 -T 0.000000
n -t 29.000000 -s 0 -x 13.842070 -y 37.167310 -U 0.000000 -V 0.000000 -T 0.000000
n -t 29.000000 -s 2 -x 23.845160 -y 42.382800 -U 0.000000 -V 0.000000 -T 0.000000
n -t 29.000000 -s 5 -x 57.734570 -y 65.253610 -U 0.000000 -V 0.000000 -T 0.000000
n -t 29.000000 -s 6 -x 34.909660 -y 65.853020 -U 0.000000 -V 0.000000 -T 0.000000
n -t 29.000000 -s 9 -x 16.281900 -y 48.517690 -U 0.000000 -V 0.000000 -T 0.000000
n -t 29.000000 -s 11 -x 25.437530 -y 48.001950 -U 0.000000 -V 0.000000 -T 0.000000
n -t 29.000000 -s 13 -x 35.641087 -y 30.779134 -U 0.000000 -V 0.000000 -T 0.000000
n -t 29.000000 -s 15 -x 14.891810 -y 0.762748 -U 0.000000 -V 0.000000 -T 0.000000
n -t 29.000000 -s 19 -x 65.689210 -y 16.560400 -U 0.000000 -V 0.000000 -T 0.000000
n -t 30.000000 -s 0 -x 13.842070 -y 37.167310 -U 0.000000 -V 0.000000 -T 0.000000
n -t 30.000000 -s 2 -x 23.845160 -y 42.382800 -U 0.000000 -V 0.000000 -T 0.000000
n -t 30.000000 -s 5 -x 57.734570 -y 65.253610 -U 0.000000 -V 0.000000 -T 0.000000
n -t 30.000000 -s 6 -x 34.909660 -y 65.853020 -U 0.000000 -V 0.000000 -T 0.000000
n -t 30.000000 -s 9 -x 16.281900 -y 48.517690 -U 0.000000 -V 0.000000 -T 0.000000
n -t 30.000000 -s 11 -x 25.437530 -y 48.001950 -U 0.000000 -V 0.000000 -T 0.000000
n -t 30.000000 -s 13 -x 35.641087 -y 30.779134 -U 0.000000 -V 0.000000 -T 0.000000
n -t 30.000000 -s 15 -x 14.891810 -y 0.762748 -U 0.000000 -V 0.000000 -T 0.000000
n -t 30.000000 -s 19 -x 65.689210 -y 16.560400 -U 0.000000 -V 0.000000 -T 0.000000
n -t 31.000000 -s 0 -x 13.842070 -y 37.167310 -U 0.000000 -V 0.000000 -T 0.000000
n -t 31.000000 -s 2 -x 23.845160 -y 42.382800 -U 0.000000 -V 0.000000 -T 0.000000
n -t 31.000000 -s 5 -x 57.734570 -y 65.253610 -U 0.000000 -V 0.000000 -T 0.000000
n -t 31.000000 -s 6 -x 34.909660 -y 65.853020 -U 0.000000 -V 0.000000 -T 0.000000
n -t 31.000000 -s 9 -x 16.281900 -y 48.517690 -U 0.000000 -V 0.000000 -T 0.000000
n -t 31.000000 -s 11 -x 25.437530 -y 48.001950 -U 0.000000 -V 0.000000 -T 0.000000
n -t 31.000000 -s 13 -x 35.641087 -y 30.779134 -U 0.000000 -V 0.000000 -T 0.000000
n -t 31.000000 -s 15 -x 14.891810 -y 0.762748 -U 0.000000 -V 0.000000 -T 0.000000
n -t 31.000000 -s 19 -x 65.689210 -y 16.560400 -U 0.000000 -V 0.000000 -T 0.000000
n -t 32.000000 -s 0 -x 13.842070 -y 37.167310 -U 0.000000 -V 0.000000 -T 0.000000
n -t 32.000000 -s 2 -x 23.845160 -y 42.382800 -U 0.000000 -V 0.000000 -T 0.000000
n -t 32.000000 -s 5 -x 57.734570 -y 65.253610 -U 0.000000 -V 0.000000 -T 0.000000
n -t 32.000000 -s 6 -x 34.909660 -y 65.853020 -U 0.000000 -V 0.000000 -T 0.000000
n -t 32.000000 -s 9 -x 16.281900 -y 48.517690 -U 0.000000 -V 0.000000 -T 0.000000
n -t 32.000000 -s 11 -x 25.437530 -y 48.001950 -U 0.000000 -V 0.000000 -T 0.000000
n -t 32.000000 -s 13 -x 35.641087 -y 30.779134 -U 0.000000 -V 0.000000 -T 0.000000
n -t 32.000000 -s 15 -x 14.891810 -y 0.762748 -U 0.000000 -V 0.000000 -T 0.000000
n -t 32.000000 -s 19 -x 65.689210 -y 16.560400 -U 0.000000 -V 0.000000 -T 0.000000
n -t 33.000000 -s 0 -x 13.842070 -y 37.167310 -U 0.000000 -V 0.000000 -T 0.000000
n -t 33.000000 -s 2 -x 23.845160 -y 42.382800 -U 0.000000 -V 0.000000 -T 0.000000
n -t 33.000000 -s 5 -x 57.734570 -y 65.253610 -U 0.000000 -V 0.000000 -T 0.000000
n -t 33.000000 -s 6 -x 34.909660 -y 65.853020 -U 0.000000 -V 0.000000 -T 0.000000
n -t 33.000000 -s 9 -x 16.281900 -y 48.517690 -U 0.000000 -V 0.000000 -T 0.000000
n -t 33.000000 -s 11 -x 25.437530 -y 48.001950 -U 0.000000 -V 0.000000 -T 0.000000
n -t 33.000000 -s 13 -x 35.641087 -y 30.779134 -U 0.000000 -V 0.000000 -T 0.000000
n -t 33.000000 -s 15 -x 14.891810 -y 0.762748 -U 0.000000 -V 0.000000 -T 0.000000
n -t 33.000000 -s 19 -x 65.689210 -y 16.560400 -U 0.000000 -V 0.000000 -T 0.000000
n -t 34.000000 -s 0 -x 13.842070 -y 37.167310 -U 0.000000 -V 0.000000 -T 0.000000
n -t 34.000000 -s 2 -x 23.845160 -y 42.382800 -U 0.000000 -V 0.000000 -T 0.000000
n -t 34.000000 -s 5 -x 57.734570 -y 65.253610 -U 0.000000 -V 0.000000 -T 0.000000
n -t 34.000000 -s 6 -x 34.909660 -y 65.853020 -U 0.000000 -V 0.000000 -T 0.000000
n -t 34.000000 -s 9 -x 16.281900 -y 48.517690 -U 0.000000 -V 0.000000 -T 0.000000
n -t 34.000000 -s 11 -x 25.437530 -y 48.001950 -U 0.000000 -V 0.000000 -T 0.000000
n -t 34.000000 -s 13 -x 35.641087 -y 30.779134 -U 0.000000 -V 0.000000 -T 0.000000
n -t 34.000000 -s 15 -x 14.891810 -y 0.762748 -U 0.000000 -V 0.000000 -T 0.000000
n -t 34.000000 -s 19 -x 65.689210 -y 16.560400 -U 0.000000 -V 0.000000 -T 0.000000
n -t 35.000000 -s 0 -x 13.842070 -y 37.167310 -U 0.000000 -V 0.000000 -T 0.000000
n -t 35.000000 -s 2 -x 23.845160 -y 42.382800 -U 0.000000 -V 0.000000 -T 0.000000
n -t 35.000000 -s 5 -x 57.734570 -y 65.253610 -U 0.000000 -V 0.000000 -T 0.000000
n -t 35.000000 -s 6 -x 34.909660 -y 65.853020 -U 0.000000 -V 0.000000 -T 0.000000
n -t 35.000000 -s 9 -x 16.281900 -y 48.517690 -U 0.000000 -V 0.000000 -T 0.000000
n -t 35.000000 -s 11 -x 25.437530 -y 48.001950 -U 0.000000 -V 0.000000 -T 0.000000
n -t 35.000000 -s 13 -x 35.641087 -y 30.779134 -U 0.000000 -V 0.000000 -T 0.000000
n -t 35.000000 -s 15 -x 14.891810 -y 0.762748 -U 0.000000 -V 0.000000 -T 0.000000
n -t 35.000000 -s 19 -x 65.689210 -y 16.560400 -U 0.000000 -V 0.000000 -T 0.000000
n -t 37.000000 -s 0 -x 13.842070 -y 37.167310 -U -0.328979 -V 0.944337 -T 22.294902
n -t 37.000000 -s 1 -x 14.876630 -y 56.488150 -U -0.840522 -V 0.541777 -T 6.914038
n -t 37.000000 -s 2 -x 23.845160 -y 42.382800 -U -0.678357 -V 0.734732 -T 22.983115
n -t 37.000000 -s 6 -x 34.909660 -y 65.853020 -U -0.995343 -V -0.096401 -T 25.187642
n -t 37.000000 -s 9 -x 16.281900 -y 48.517690 -U -0.620680 -V 0.784064 -T 13.398009
n -t 37.000000 -s 11 -x 25.437530 -y 48.001950 -U -0.809159 -V 0.587590 -T 20.427527
n -t 38.000000 -s 0 -x 13.513091 -y 38.111647 -U -0.328979 -V 0.944337 -T 21.294902
n -t 38.000000 -s 1 -x 14.036108 -y 57.029927 -U -0.840522 -V 0.541777 -T 5.914038
n -t 38.000000 -s 2 -x 23.166803 -y 43.117532 -U -0.678357 -V 0.734732 -T 21.983115
n -t 38.000000 -s 6 -x 33.914317 -y 65.756619 -U -0.995343 -V -0.096401 -T 24.187642
n -t 38.000000 -s 9 -x 15.661220 -y 49.301754 -U -0.620680 -V 0.784064 -T 12.398009
n -t 38.000000 -s 11 -x 24.628371 -y 48.589540 -U -0.809159 -V 0.587590 -T 19.427527
n -t 39.000000 -s 0 -x 13.184112 -y 39.055984 -U -0.328979 -V 0.944337 -T 20.294902
n -t 39.000000 -s 1 -x 13.195585 -y 57.571704 -U -0.840522 -V 0.541777 -T 4.914038
n -t 39.000000 -s 2 -x 22.488446 -y 43.852265 -U -0.678357 -V 0.734732 -T 20.983115
n -t 39.000000 -s 6 -x 32.918975 -y 65.660218 -U -0.995343 -V -0.096401 -T 23.187642
n -t 39.000000 -s 9 -x 15.040539 -y 50.085817 -U -0.620680 -V 0.784064 -T 11.398009
n -t 39.000000 -s 11 -x 23.819212 -y 49.177129 -U -0.809159 -V 0.587590 -T 18.427527
n -t 39.000000 -s 0 -x 13.184112 -y 39.055984 -U 0.000000 -V 0.000000 -T 0.000000
n -t 39.000000 -s 2 -x 22.488446 -y 43.852265 -U 0.000000 -V 0.000000 -T 0.000000
n -t 39.000000 -s 6 -x 32.918975 -y 65.660218 -U 0.000000 -V 0.000000 -T 0.000000
n -t 39.000000 -s 9 -x 15.040539 -y 50.085817 -U 0.000000 -V 0.000000 -T 0.000000
n -t 39.000000 -s 11 -x 23.819212 -y 49.177129 -U 0.000000 -V 0.000000 -T 0.000000
n -t 40.000000 -s 0 -x 13.184112 -y 39.055984 -U 0.000000 -V 0.000000 -T 0.000000
n -t 40.000000 -s 2 -x 22.488446 -y 43.852265 -U 0.000000 -V 0.000000 -T 0.000000
n -t 40.000000 -s 6 -x 32.918975 -y 65.660218 -U 0.000000 -V 0.000000 -T 0.000000
n -t 40.000000 -s 9 -x 15.040539 -y 50.085817 -U 0.000000 -V 0.000000 -T 0.000000
n -t 40.000000 -s 11 -x 23.819212 -y 49.177129 -U 0.000000 -V 0.000000 -T 0.000000
n -t 41.000000 -s 0 -x 13.184112 -y 39.055984 -U 0.000000 -V 0.000000 -T 0.000000
n -t 41.000000 -s 2 -x 22.488446 -y 43.852265 -U 0.000000 -V 0.000000 -T 0.000000
n -t 41.000000 -s 6 -x 32.918975 -y 65.660218 -U 0.000000 -V 0.000000 -T 0.000000
n -t 41.000000 -s 9 -x 15.040539 -y 50.085817 -U 0.000000 -V 0.000000 -T 0.000000
n -t 41.000000 -s 11 -x 23.819212 -y 49.177129 -U 0.000000 -V 0.000000 -T 0.000000