n -t * -s 0  -x 72.338719999999995 -y 18.92305 -Z 0 -z 1  -v circle -c black
n -t * -s 1  -x 39.738079999999997 -y 0.26097910000000002 -Z 0 -z 1  -v circle -c black
n -t * -s 2  -x 21.067219999999999 -y 48.39302 -Z 0 -z 1  -v circle -c black
n -t * -s 3  -x 66.899339999999995 -y 6.7022599999999999 -Z 0 -z 1  -v circle -c black
n -t * -s 4  -x 76.795599999999993 -y 74.315179999999998 -Z 0 -z 1  -v circle -c black
n -t * -s 5  -x 66.653790000000001 -y 75.508120000000005 -Z 0 -z 1  -v circle -c black
n -t * -s 6  -x 66.230919999999998 -y 51.245919999999998 -Z 0 -z 1  -v circle -c black
n -t * -s 7  -x 56.189660000000003 -y 40.57958 -Z 0 -z 1  -v circle -c black
n -t * -s 8  -x 70.269450000000006 -y 44.545029999999997 -Z 0 -z 1  -v circle -c black
n -t * -s 9  -x 66.240660000000005 -y 25.592469999999999 -Z 0 -z 1  -v circle -c black
n -t * -s 10  -x 49.934399999999997 -y 6.4199900000000003 -Z 0 -z 1  -v circle -c black
n -t * -s 11  -x 9.5185370000000002 -y 73.427629999999994 -Z 0 -z 1  -v circle -c black
n -t * -s 12  -x 56.14593 -y 24.111219999999999 -Z 0 -z 1  -v circle -c black
n -t * -s 13  -x 26.413350000000001 -y 49.5261 -Z 0 -z 1  -v circle -c black
n -t * -s 14  -x 21.457159999999998 -y 31.760840000000002 -Z 0 -z 1  -v circle -c black
n -t * -s 15  -x 27.51904 -y 64.017529999999994 -Z 0 -z 2  -v circle -c black
n -t * -s 16  -x 50.738460000000003 -y 26.94772 -Z 0 -z 2  -v circle -c black
n -t * -s 17  -x 71.81653 -y 33.989269999999998 -Z 0 -z 2  -v circle -c black
V -t * -v 1.0a5 -a 0
W -t * -x 100 -y 100
A -t * -n 1 -p 0 -o 0x7fffffff -c 30 -a 1
A -t * -h 1 -m 1073741823 -s 0
n -t 0 -s 15 -S COLOR -c red -o black -i red -I black
n -t 0 -s 16 -S COLOR -c red -o black -i red -I black
n -t 0 -s 17 -S COLOR -c red -o black -i red -I black
n -t 0.000000 -s 15 -x 27.519040 -y 64.017530 -U 2.696070 -V -0.400156 -T 17.810763
n -t 0.000000 -s 16 -x 50.738460 -y 26.947720 -U -1.679022 -V 0.696230 -T 25.489587
n -t 0.000000 -s 17 -x 71.816530 -y 33.989270 -U -1.942916 -V -2.105571 -T 11.641036
n -t 0.000000 -s 12 -x 56.145930 -y 24.111220 -U -0.885561 -V 0.464523 -T 6.106264
n -t 0.000000 -s 9 -x 66.240660 -y 25.592470 -U 0.553188 -V 0.833056 -T 10.079513
n -t 0.000000 -s 8 -x 70.269450 -y 44.545030 -U 0.145013 -V -0.989430 -T 10.668530
n -t 0.000000 -s 13 -x 26.413350 -y 49.526100 -U 0.076078 -V 0.997102 -T 14.533551
n -t 0.000000 -s 7 -x 56.189660 -y 40.579580 -U -0.371300 -V -0.928513 -T 14.681389
n -t 0.000000 -s 0 -x 72.338720 -y 18.923050 -U -0.034639 -V 0.999400 -T 15.075267
n -t 0.000000 -s 2 -x 21.067220 -y 48.393020 -U 0.381670 -V 0.924299 -T 16.904180
n -t 0.000000 -s 6 -x 66.230920 -y 51.245920 -U 0.307949 -V -0.951403 -T 18.138109
n -t 0.000000 -s 11 -x 9.518537 -y 73.427630 -U 0.886210 -V -0.463283 -T 20.311772
n -t 0.000000 -s 10 -x 49.934400 -y 6.419990 -U 0.039139 -V 0.999234 -T 20.543471
n -t 0.000000 -s 3 -x 66.899340 -y 6.702260 -U -0.623859 -V 0.781537 -T 25.904685
n -t 0.000000 -s 1 -x 39.738080 -y 0.260979 -U 0.381097 -V 0.924535 -T 28.865039
n -t 0.000000 -s 14 -x 21.457160 -y 31.760840 -U 0.986758 -V -0.162199 -T 29.674242
n -t 0.000000 -s 4 -x 76.795600 -y 74.315180 -U -0.122540 -V -0.992464 -T 40.632132
n -t 0.000000 -s 5 -x 66.653790 -y 75.508120 -U -0.959496 -V -0.281723 -T 40.786791
n -t 0.000000 -s 7 -x 56.189660 -y 40.579580 -U 0.000000 -V 0.000000 -T 0.000000
n -t 0.000000 -s 10 -x 49.934400 -y 6.419990 -U 0.000000 -V 0.000000 -T 0.000000
n -t 0.000000 -s 3 -x 66.899340 -y 6.702260 -U 0.000000 -V 0.000000 -T 0.000000
n -t 0.000000 -s 1 -x 39.738080 -y 0.260979 -U 0.000000 -V 0.000000 -T 0.000000
n -t 0.000000 -s 14 -x 21.457160 -y 31.760840 -U 0.000000 -V 0.000000 -T 0.000000
n -t 1.000000 -s 13 -x 26.489428 -y 50.523202 -U 0.000000 -V 0.000000 -T 0.000000
n -t 1.000000 -s 2 -x 21.448890 -y 49.317319 -U 0.000000 -V 0.000000 -T 0.000000
n -t 1.000000 -s 11 -x 10.404747 -y 72.964347 -U 0.000000 -V 0.000000 -T 0.000000
n -t 1.000000 -s 5 -x 65.694294 -y 75.226397 -U 0.000000 -V 0.000000 -T 0.000000
n -t 1.000000 -s 12 -x 55.260369 -y 24.575743 -U 0.000000 -V 0.000000 -T 0.000000
n -t 1.000000 -s 7 -x 56.189660 -y 40.579580 -U 0.000000 -V 0.000000 -T 0.000000
n -t 1.000000 -s 10 -x 49.934400 -y 6.419990 -U 0.000000 -V 0.000000 -T 0.000000
n -t 1.000000 -s 3 -x 66.899340 -y 6.702260 -U 0.000000 -V 0.000000 -T 0.000000
n -t 1.000000 -s 1 -x 39.738080 -y 0.260979 -U 0.000000 -V 0.000000 -T 0.000000
n -t 1.000000 -s 14 -x 21.457160 -y 31.760840 -U 0.000000 -V 0.000000 -T 0.000000
n -t 1.000000 -s 9 -x 66.793848 -y 26.425526 -U 0.000000 -V 0.000000 -T 0.000000
n -t 1.000000 -s 8 -x 70.414463 -y 43.555600 -U 0.000000 -V 0.000000 -T 0.000000
n -t 1.000000 -s 0 -x 72.304081 -y 19.922450 -U 0.000000 -V 0.000000 -T 0.000000
n -t 1.000000 -s 6 -x 66.538869 -y 50.294517 -U 0.000000 -V 0.000000 -T 0.000000
n -t 1.000000 -s 4 -x 76.673060 -y 73.322716 -U 0.000000 -V 0.000000 -T 0.000000
n -t 1.000000 -s 9 -x 66.793848 -y 26.425526 -U 0.491418 -V 0.870924 -T 6.267105
n -t 1.000000 -s 12 -x 55.260369 -y 24.575743 -U -0.895363 -V 0.445338 -T 6.709176
n -t 1.000000 -s 8 -x 70.414463 -y 43.555600 -U -0.046288 -V -0.998928 -T 11.684426
n -t 1.000000 -s 0 -x 72.304081 -y 19.922450 -U -0.199126 -V 0.979974 -T 12.205681
n -t 1.000000 -s 13 -x 26.489428 -y 50.523202 -U 0.273668 -V 0.961824 -T 13.613892
n -t 1.000000 -s 7 -x 56.189660 -y 40.579580 -U -0.470302 -V -0.882506 -T 14.748899
n -t 1.000000 -s 2 -x 21.448890 -y 49.317319 -U 0.522634 -V 0.852557 -T 16.773139
n -t 1.000000 -s 6 -x 66.538869 -y 50.294517 -U 0.178230 -V -0.983989 -T 18.710392
n -t 1.000000 -s 10 -x 49.934400 -y 6.419990 -U -0.032200 -V 0.999481 -T 21.154574
n -t 1.000000 -s 11 -x 10.404747 -y 72.964347 -U 0.904388 -V -0.426711 -T 21.904711
n -t 1.000000 -s 3 -x 66.899340 -y 6.702260 -U 0.117298 -V 0.993097 -T 25.356482
n -t 1.000000 -s 14 -x 21.457160 -y 31.760840 -U 0.988791 -V -0.149309 -T 28.111173
n -t 1.000000 -s 1 -x 39.738080 -y 0.260979 -U 0.329094 -V 0.944297 -T 28.913159
n -t 1.000000 -s 5 -x 65.694294 -y 75.226397 -U -0.950416 -V -0.310982 -T 37.330175
n -t 1.000000 -s 4 -x 76.673060 -y 73.322716 -U -0.161918 -V -0.986804 -T 41.993150
n -t 1.000000 -s 7 -x 56.189660 -y 40.579580 -U 0.000000 -V 0.000000 -T 0.000000
n -t 1.000000 -s 10 -x 49.934400 -y 6.419990 -U 0.000000 -V 0.000000 -T 0.000000
n -t 1.000000 -s 14 -x 21.457160 -y 31.760840 -U 0.000000 -V 0.000000 -T 0.000000
n -t 1.000000 -s 1 -x 39.738080 -y 0.260979 -U 0.000000 -V 0.000000 -T 0.000000
n -t 1.000000 -s 8 -x 70.414463 -y 43.555600 -U 0.000000 -V 0.000000 -T 0.000000
n -t 1.000000 -s 0 -x 72.304081 -y 19.922450 -U 0.000000 -V 0.000000 -T 0.000000
n -t 1.000000 -s 6 -x 66.538869 -y 50.294517 -U 0.000000 -V 0.000000 -T 0.000000
n -t 1.000000 -s 3 -x 66.899340 -y 6.702260 -U 0.000000 -V 0.000000 -T 0.000000
n -t 1.000000 -s 4 -x 76.673060 -y 73.322716 -U 0.000000 -V 0.000000 -T 0.000000
n -t 2.000000 -s 13 -x 26.763096 -y 51.485026 -U 0.000000 -V 0.000000 -T 0.000000
n -t 2.000000 -s 2 -x 21.971525 -y 50.169876 -U 0.000000 -V 0.000000 -T 0.000000
n -t 2.000000 -s 11 -x 11.309136 -y 72.537636 -U 0.000000 -V 0.000000 -T 0.000000
n -t 2.000000 -s 5 -x 64.743879 -y 74.915414 -U 0.000000 -V 0.000000 -T 0.000000
n -t 2.000000 -s 12 -x 54.365006 -y 25.021081 -U 0.000000 -V 0.000000 -T 0.000000
n -t 2.000000 -s 7 -x 56.189660 -y 40.579580 -U 0.000000 -V 0.000000 -T 0.000000
n -t 2.000000 -s 10 -x 49.934400 -y 6.419990 -U 0.000000 -V 0.000000 -T 0.000000
n -t 2.000000 -s 14 -x 21.457160 -y 31.760840 -U 0.000000 -V 0.000000 -T 0.000000
n -t 2.000000 -s 1 -x 39.738080 -y 0.260979 -U 0.000000 -V 0.000000 -T 0.000000
n -t 2.000000 -s 9 -x 67.285266 -y 27.296450 -U 0.000000 -V 0.000000 -T 0.000000
n -t 2.000000 -s 8 -x 70.414463 -y 43.555600 -U 0.000000 -V 0.000000 -T 0.000000
n -t 2.000000 -s 0 -x 72.304081 -y 19.922450 -U 0.000000 -V 0.000000 -T 0.000000
n -t 2.000000 -s 6 -x 66.538869 -y 50.294517 -U 0.000000 -V 0.000000 -T 0.000000
n -t 2.000000 -s 3 -x 66.899340 -y 6.702260 -U 0.000000 -V 0.000000 -T 0.000000
n -t 2.000000 -s 4 -x 76.673060 -y 73.322716 -U 0.000000 -V 0.000000 -T 0.000000
n -t 2.000000 -s 9 -x 67.285266 -y 27.296450 -U 0.360740 -V 0.932667 -T 3.289870
n -t 2.000000 -s 12 -x 54.365006 -y 25.021081 -U -0.901682 -V 0.432401 -T 7.227347
n -t 2.000000 -s 0 -x 72.304081 -y 19.922450 -U -0.344506 -V 0.938784 -T 11.123271
n -t 2.000000 -s 13 -x 26.763096 -y 51.485026 -U 0.464164 -V 0.885749 -T 13.245500
n -t 2.000000 -s 8 -x 70.414463 -y 43.555600 -U -0.145684 -V -0.989331 -T 13.333046
n -t 2.000000 -s 7 -x 56.189660 -y 40.579580 -U -0.557125 -V -0.830429 -T 14.972256
n -t 2.000000 -s 2 -x 21.971525 -y 50.169876 -U 0.642499 -V 0.766286 -T 17.026720
n -t 2.000000 -s 6 -x 66.538869 -y 50.294517 -U 0.096547 -V -0.995328 -T 20.023255
n -t 2.000000 -s 10 -x 49.934400 -y 6.419990 -U -0.095581 -V 0.995422 -T 21.826127
n -t 2.000000 -s 11 -x 11.309136 -y 72.537636 -U 0.918182 -V -0.396159 -T 23.526974
n -t 2.000000 -s 3 -x 66.899340 -y 6.702260 -U 0.066318 -V 0.997799 -T 23.714749
n -t 2.000000 -s 14 -x 21.457160 -y 31.760840 -U 0.990750 -V -0.135698 -T 26.637471
n -t 2.000000 -s 1 -x 39.738080 -y 0.260979 -U 0.279269 -V 0.960213 -T 29.040656
n -t 2.000000 -s 5 -x 64.743879 -y 74.915414 -U -0.938626 -V -0.344936 -T 33.914134
n -t 2.000000 -s 4 -x 76.673060 -y 73.322716 -U -0.187521 -V -0.982261 -T 43.733728
n -t 2.000000 -s 7 -x 56.189660 -y 40.579580 -U 0.000000 -V 0.000000 -T 0.000000
n -t 2.000000 -s 10 -x 49.934400 -y 6.419990 -U 0.000000 -V 0.000000 -T 0.000000
n -t 2.000000 -s 14 -x 21.457160 -y 31.760840 -U 0.000000 -V 0.000000 -T 0.000000
n -t 2.000000 -s 1 -x 39.738080 -y 0.260979 -U 0.000000 -V 0.000000 -T 0.000000
n -t 2.000000 -s 0 -x 72.304081 -y 19.922450 -U 0.000000 -V 0.000000 -T 0.000000
n -t 2.000000 -s 8 -x 70.414463 -y 43.555600 -U 0.000000 -V 0.000000 -T 0.000000
n -t 2.000000 -s 6 -x 66.538869 -y 50.294517 -U 0.000000 -V 0.000000 -T 0.000000
n -t 2.000000 -s 3 -x 66.899340 -y 6.702260 -U 0.000000 -V 0.000000 -T 0.000000
n -t 2.000000 -s 4 -x 76.673060 -y 73.322716 -U 0.000000 -V 0.000000 -T 0.000000
n -t 3.000000 -s 13 -x 27.227260 -y 52.370775 -U 0.000000 -V 0.000000 -T 0.000000
n -t 3.000000 -s 2 -x 22.614024 -y 50.936162 -U 0.000000 -V 0.000000 -T 0.000000
n -t 3.000000 -s 11 -x 12.227318 -y 72.141478 -U 0.000000 -V 0.000000 -T 0.000000
n -t 3.000000 -s 5 -x 63.805252 -y 74.570479 -U 0.000000 -V 0.000000 -T 0.000000
n -t 3.000000 -s 12 -x 53.463325 -y 25.453482 -U 0.000000 -V 0.000000 -T 0.000000
n -t 3.000000 -s 7 -x 56.189660 -y 40.579580 -U 0.000000 -V 0.000000 -T 0.000000
n -t 3.000000 -s 10 -x 49.934400 -y 6.419990 -U 0.000000 -V 0.000000 -T 0.000000
n -t 3.000000 -s 14 -x 21.457160 -y 31.760840 -U 0.000000 -V 0.000000 -T 0.000000
n -t 3.000000 -s 1 -x 39.738080 -y 0.260979 -U 0.000000 -V 0.000000 -T 0.000000
n -t 3.000000 -s 9 -x 67.646006 -y 28.229117 -U 0.000000 -V 0.000000 -T 0.000000
n -t 3.000000 -s 0 -x 72.304081 -y 19.922450 -U 0.000000 -V 0.000000 -T 0.000000
n -t 3.000000 -s 8 -x 70.414463 -y 43.555600 -U 0.000000 -V 0.000000 -T 0.000000
n -t 3.000000 -s 6 -x 66.538869 -y 50.294517 -U 0.000000 -V 0.000000 -T 0.000000
n -t 3.000000 -s 3 -x 66.899340 -y 6.702260 -U 0.000000 -V 0.000000 -T 0.000000
n -t 3.000000 -s 4 -x 76.673060 -y 73.322716 -U 0.000000 -V 0.000000 -T 0.000000
n -t 3.000000 -s 9 -x 67.646006 -y 28.229117 -U 0.180763 -V 0.983527 -T 1.574955
n -t 3.000000 -s 12 -x 53.463325 -y 25.453482 -U -0.903432 -V 0.428732 -T 6.733113
n -t 3.000000 -s 0 -x 72.304081 -y 19.922450 -U -0.405603 -V 0.914050 -T 10.782433
n -t 3.000000 -s 13 -x 27.227260 -y 52.370775 -U 0.625740 -V 0.780032 -T 13.392130
n -t 3.000000 -s 8 -x 70.414463 -y 43.555600 -U -0.177417 -V -0.984136 -T 13.999566
n -t 3.000000 -s 7 -x 56.189660 -y 40.579580 -U -0.584168 -V -0.811633 -T 15.079976
n -t 3.000000 -s 2 -x 22.614024 -y 50.936162 -U 0.737990 -V 0.674812 -T 17.606241
n -t 3.000000 -s 6 -x 66.538869 -y 50.294517 -U 0.067684 -V -0.997707 -T 20.563546
n -t 3.000000 -s 10 -x 49.934400 -y 6.419990 -U -0.115730 -V 0.993281 -T 22.068475
n -t 3.000000 -s 3 -x 66.899340 -y 6.702260 -U 0.044650 -V 0.999003 -T 23.098904
n -t 3.000000 -s 11 -x 12.227318 -y 72.141478 -U 0.928854 -V -0.370447 -T 25.170736
n -t 3.000000 -s 14 -x 21.457160 -y 31.760840 -U 0.991406 -V -0.130819 -T 26.147966
n -t 3.000000 -s 1 -x 39.738080 -y 0.260979 -U 0.262618 -V 0.964900 -T 29.100633
n -t 3.000000 -s 5 -x 63.805252 -y 74.570479 -U -0.923028 -V -0.384734 -T 30.549471
n -t 3.000000 -s 4 -x 76.673060 -y 73.322716 -U -0.968800 -V -0.247843 -T 42.388318
n -t 3.000000 -s 7 -x 56.189660 -y 40.579580 -U 0.000000 -V 0.000000 -T 0.000000
n -t 3.000000 -s 10 -x 49.934400 -y 6.419990 -U 0.000000 -V 0.000000 -T 0.000000
n -t 3.000000 -s 14 -x 21.457160 -y 31.760840 -U 0.000000 -V 0.000000 -T 0.000000
n -t 3.000000 -s 1 -x 39.738080 -y 0.260979 -U 0.000000 -V 0.000000 -T 0.000000
n -t 3.000000 -s 0 -x 72.304081 -y 19.922450 -U 0.000000 -V 0.000000 -T 0.000000
n -t 3.000000 -s 8 -x 70.414463 -y 43.555600 -U 0.000000 -V 0.000000 -T 0.000000
n -t 3.000000 -s 6 -x 66.538869 -y 50.294517 -U 0.000000 -V 0.000000 -T 0.000000
n -t 3.000000 -s 3 -x 66.899340 -y 6.702260 -U 0.000000 -V 0.000000 -T 0.000000
n -t 4.000000 -s 13 -x 27.853000 -y 53.150807 -U 0.000000 -V 0.000000 -T 0.000000
n -t 4.000000 -s 2 -x 23.352014 -y 51.610974 -U 0.000000 -V 0.000000 -T 0.000000
n -t 4.000000 -s 11 -x 13.156171 -y 71.771031 -U 0.000000 -V 0.000000 -T 0.000000
n -t 4.000000 -s 5 -x 62.882225 -y 74.185745 -U 0.000000 -V 0.000000 -T 0.000000
n -t 4.000000 -s 4 -x 75.704260 -y 73.074873 -U 0.000000 -V 0.000000 -T 0.000000
n -t 4.000000 -s 12 -x 52.559893 -y 25.882213 -U 0.000000 -V 0.000000 -T 0.000000
n -t 4.000000 -s 7 -x 56.189660 -y 40.579580 -U 0.000000 -V 0.000000 -T 0.000000
n -t 4.000000 -s 10 -x 49.934400 -y 6.419990 -U 0.000000 -V 0.000000 -T 0.000000
n -t 4.000000 -s 14 -x 21.457160 -y 31.760840 -U 0.000000 -V 0.000000 -T 0.000000
n -t 4.000000 -s 1 -x 39.738080 -y 0.260979 -U 0.000000 -V 0.000000 -T 0.000000
n -t 4.000000 -s 9 -x 67.826768 -y 29.212643 -U 0.000000 -V 0.000000 -T 0.000000
n -t 4.000000 -s 0 -x 72.304081 -y 19.922450 -U 0.000000 -V 0.000000 -T 0.000000
n -t 4.000000 -s 8 -x 70.414463 -y 43.555600 -U 0.000000 -V 0.000000 -T 0.000000
n -t 4.000000 -s 6 -x 66.538869 -y 50.294517 -U 0.000000 -V 0.000000 -T 0.000000
n -t 4.000000 -s 3 -x 66.899340 -y 6.702260 -U 0.000000 -V 0.000000 -T 0.000000
n -t 4.000000 -s 9 -x 67.826768 -y 29.212643 -U -0.766661 -V -0.642052 -T 2.398694
n -t 4.000000 -s 12 -x 52.559893 -y 25.882213 -U -0.908526 -V 0.417828 -T 7.549038
n -t 4.000000 -s 0 -x 72.304081 -y 19.922450 -U -0.631757 -V 0.775167 -T 9.997988
n -t 4.000000 -s 13 -x 27.853000 -y 53.150807 -U 0.748229 -V 0.663440 -T 13.966738
n -t 4.000000 -s 7 -x 56.189660 -y 40.579580 -U -0.672479 -V -0.740116 -T 15.596425
n -t 4.000000 -s 8 -x 70.414463 -y 43.555600 -U -0.268473 -V -0.963287 -T 16.488377
n -t 4.000000 -s 2 -x 23.352014 -y 51.610974 -U 0.810479 -V 0.585767 -T 18.447486
n -t 4.000000 -s 3 -x 66.899340 -y 6.702260 -U -0.043428 -V 0.999057 -T 20.990099
n -t 4.000000 -s 6 -x 66.538869 -y 50.294517 -U -0.024353 -V -0.999703 -T 22.628672
n -t 4.000000 -s 10 -x 49.934400 -y 6.419990 -U -0.183971 -V 0.982932 -T 23.009146
n -t 4.000000 -s 14 -x 21.457160 -y 31.760840 -U 0.993745 -V -0.111671 -T 24.396832
n -t 4.000000 -s 11 -x 13.156171 -y 71.771031 -U 0.937258 -V -0.348637 -T 26.830555
n -t 4.000000 -s 5 -x 62.882225 -y 74.185745 -U -0.901938 -V -0.431865 -T 27.251204
n -t 4.000000 -s 1 -x 39.738080 -y 0.260979 -U 0.202925 -V 0.979194 -T 29.386843
n -t 4.000000 -s 4 -x 75.704260 -y 73.074873 -U -0.961714 -V -0.274055 -T 38.889878
n -t 4.000000 -s 7 -x 56.189660 -y 40.579580 -U 0.000000 -V 0.000000 -T 0.000000
n -t 4.000000 -s 10 -x 49.934400 -y 6.419990 -U 0.000000 -V 0.000000 -T 0.000000
n -t 4.000000 -s 14 -x 21.457160 -y 31.760840 -U 0.000000 -V 0.000000 -T 0.000000
n -t 4.000000 -s 1 -x 39.738080 -y 0.260979 -U 0.000000 -V 0.000000 -T 0.000000
n -t 4.000000 -s 0 -x 72.304081 -y 19.922450 -U 0.000000 -V 0.000000 -T 0.000000
n -t 4.000000 -s 8 -x 70.414463 -y 43.555600 -U 0.000000 -V 0.000000 -T 0.000000
n -t 4.000000 -s 3 -x 66.899340 -y 6.702260 -U 0.000000 -V 0.000000 -T 0.000000
n -t 4.000000 -s 6 -x 66.538869 -y 50.294517 -U 0.000000 -V 0.000000 -T 0.000000
n -t 5.000000 -s 13 -x 28.601229 -y 53.814248 -U 0.000000 -V 0.000000 -T 0.000000
n -t 5.000000 -s 2 -x 24.162493 -y 52.196741 -U 0.000000 -V 0.000000 -T 0.000000
n -t 5.000000 -s 11 -x 14.093429 -y 71.422394 -U 0.000000 -V 0.000000 -T 0.000000
n -t 5.000000 -s 5 -x 61.980286 -y 73.753880 -U 0.000000 -V 0.000000 -T 0.000000
n -t 5.000000 -s 4 -x 74.742546 -y 72.800818 -U 0.000000 -V 0.000000 -T 0.000000
n -t 5.000000 -s 12 -x 51.651367 -y 26.300041 -U 0.000000 -V 0.000000 -T 0.000000
n -t 5.000000 -s 7 -x 56.189660 -y 40.579580 -U 0.000000 -V 0.000000 -T 0.000000
n -t 5.000000 -s 10 -x 49.934400 -y 6.419990 -U 0.000000 -V 0.000000 -T 0.000000
n -t 5.000000 -s 14 -x 21.457160 -y 31.760840 -U 0.000000 -V 0.000000 -T 0.000000
n -t 5.000000 -s 1 -x 39.738080 -y 0.260979 -U 0.000000 -V 0.000000 -T 0.000000
n -t 5.000000 -s 9 -x 67.060108 -y 28.570591 -U 0.000000 -V 0.000000 -T 0.000000
n -t 5.000000 -s 0 -x 72.304081 -y 19.922450 -U 0.000000 -V 0.000000 -T 0.000000
n -t 5.000000 -s 8 -x 70.414463 -y 43.555600 -U 0.000000 -V 0.000000 -T 0.000000
n -t 5.000000 -s 3 -x 66.899340 -y 6.702260 -U 0.000000 -V 0.000000 -T 0.000000
n -t 5.000000 -s 6 -x 66.538869 -y 50.294517 -U 0.000000 -V 0.000000 -T 0.000000
n -t 5.000000 -s 9 -x 67.060108 -y 28.570591 -U -0.708472 -V -0.705739 -T 4.255975
n -t 5.000000 -s 12 -x 51.651367 -y 26.300041 -U -0.911942 -V 0.410320 -T 8.365662
n -t 5.000000 -s 0 -x 72.304081 -y 19.922450 -U -0.825610 -V 0.564241 -T 10.003768
n -t 5.000000 -s 13 -x 28.601229 -y 53.814248 -U 0.833999 -V 0.551766 -T 14.865915
n -t 5.000000 -s 7 -x 56.189660 -y 40.579580 -U -0.746447 -V -0.665445 -T 16.300276
n -t 5.000000 -s 3 -x 66.899340 -y 6.702260 -U -0.149610 -V 0.988745 -T 19.079462
n -t 5.000000 -s 8 -x 70.414463 -y 43.555600 -U -0.333783 -V -0.942650 -T 19.083030
n -t 5.000000 -s 2 -x 24.162493 -y 52.196741 -U 0.863813 -V 0.503813 -T 19.491374
n -t 5.000000 -s 14 -x 21.457160 -y 31.760840 -U 0.995985 -V -0.089521 -T 22.656177
n -t 5.000000 -s 10 -x 49.934400 -y 6.419990 -U 0.593258 -V 0.805013 -T 23.784716
n -t 5.000000 -s 5 -x 61.980286 -y 73.753880 -U -0.872722 -V -0.488218 -T 24.040762
n -t 5.000000 -s 6 -x 66.538869 -y 50.294517 -U -0.100350 -V -0.994952 -T 24.852985
n -t 5.000000 -s 11 -x 14.093429 -y 71.422394 -U 0.943983 -V -0.329993 -T 28.502575
n -t 5.000000 -s 1 -x 39.738080 -y 0.260979 -U 0.143858 -V 0.989598 -T 29.781437
n -t 5.000000 -s 4 -x 74.742546 -y 72.800818 -U -0.952537 -V -0.304424 -T 35.424521
n -t 5.000000 -s 0 -x 72.304081 -y 19.922450 -U 0.000000 -V 0.000000 -T 0.000000
n -t 5.000000 -s 3 -x 66.899340 -y 6.702260 -U 0.000000 -V 0.000000 -T 0.000000
n -t 5.000000 -s 8 -x 70.414463 -y 43.555600 -U 0.000000 -V 0.000000 -T 0.000000
n -t 5.000000 -s 10 -x 49.934400 -y 6.419990 -U 0.000000 -V 0.000000 -T 0.000000
n -t 5.000000 -s 6 -x 66.538869 -y 50.294517 -U 0.000000 -V 0.000000 -T 0.000000
n -t 6.000000 -s 13 -x 29.435228 -y 54.366014 -U 0.000000 -V 0.000000 -T 0.000000
n -t 6.000000 -s 2 -x 25.026306 -y 52.700554 -U 0.000000 -V 0.000000 -T 0.000000
n -t 6.000000 -s 5 -x 61.107565 -y 73.265662 -U 0.000000 -V 0.000000 -T 0.000000
n -t 6.000000 -s 11 -x 15.037413 -y 71.092401 -U 0.000000 -V 0.000000 -T 0.000000
n -t 6.000000 -s 4 -x 73.790009 -y 72.496394 -U 0.000000 -V 0.000000 -T 0.000000
n -t 6.000000 -s 12 -x 50.739425 -y 26.710361 -U 0.000000 -V 0.000000 -T 0.000000
n -t 6.000000 -s 7 -x 55.443213 -y 39.914135 -U 0.000000 -V 0.000000 -T 0.000000
n -t 6.000000 -s 14 -x 22.453145 -y 31.671319 -U 0.000000 -V 0.000000 -T 0.000000
n -t 6.000000 -s 1 -x 39.881938 -y 1.250577 -U 0.000000 -V 0.000000 -T 0.000000
n -t 6.000000 -s 9 -x 66.351635 -y 27.864852 -U 0.000000 -V 0.000000 -T 0.000000
n -t 6.000000 -s 0 -x 72.304081 -y 19.922450 -U 0.000000 -V 0.000000 -T 0.000000
n -t 6.000000 -s 3 -x 66.899340 -y 6.702260 -U 0.000000 -V 0.000000 -T 0.000000
n -t 6.000000 -s 8 -x 70.414463 -y 43.555600 -U 0.000000 -V 0.000000 -T 0.000000
n -t 6.000000 -s 10 -x 49.934400 -y 6.419990 -U 0.000000 -V 0.000000 -T 0.000000
n -t 6.000000 -s 6 -x 66.538869 -y 50.294517 -U 0.000000 -V 0.000000 -T 0.000000
n -t 6.000000 -s 9 -x 66.351635 -y 27.864852 -U -0.694433 -V -0.719558 -T 6.119647
n -t 6.000000 -s 0 -x 72.304081 -y 19.922450 -U -0.944772 -V 0.327727 -T 10.798504
n -t 6.000000 -s 12 -x 50.739425 -y 26.710361 -U -0.915927 -V 0.401344 -T 10.999887
n -t 6.000000 -s 13 -x 29.435228 -y 54.366014 -U 0.891395 -V 0.453228 -T 15.997660
n -t 6.000000 -s 7 -x 55.443213 -y 39.914135 -U -0.859495 -V -0.511144 -T 17.194841
n -t 6.000000 -s 3 -x 66.899340 -y 6.702260 -U -0.275201 -V 0.961387 -T 17.432274
n -t 6.000000 -s 14 -x 22.453145 -y 31.671319 -U 0.999550 -V -0.029980 -T 18.219372
n -t 6.000000 -s 2 -x 25.026306 -y 52.700554 -U 0.902373 -V 0.430956 -T 20.688960
n -t 6.000000 -s 10 -x 49.934400 -y 6.419990 -U 0.581083 -V 0.813844 -T 20.939423
n -t 6.000000 -s 5 -x 61.107565 -y 73.265662 -U -0.831146 -V -0.556054 -T 20.949515
n -t 6.000000 -s 8 -x 70.414463 -y 43.555600 -U -0.382261 -V -0.924055 -T 21.745670
n -t 6.000000 -s 6 -x 66.538869 -y 50.294517 -U -0.895985 -V 0.444085 -T 25.495310
n -t 6.000000 -s 1 -x 39.881938 -y 1.250577 -U 0.026180 -V 0.999657 -T 29.884767
n -t 6.000000 -s 11 -x 15.037413 -y 71.092401 -U 0.949445 -V -0.313935 -T 30.184011
n -t 6.000000 -s 4 -x 73.790009 -y 72.496394 -U -0.940431 -V -0.339985 -T 32.000812
n -t 6.000000 -s 0 -x 72.304081 -y 19.922450 -U 0.000000 -V 0.000000 -T 0.000000
n -t 6.000000 -s 3 -x 66.899340 -y 6.702260 -U 0.000000 -V 0.000000 -T 0.000000
n -t 6.000000 -s 10 -x 49.934400 -y 6.419990 -U 0.000000 -V 0.000000 -T 0.000000
n -t 6.000000 -s 8 -x 70.414463 -y 43.555600 -U 0.000000 -V 0.000000 -T 0.000000
n -t 7.000000 -s 13 -x 30.326623 -y 54.819241 -U 0.000000 -V 0.000000 -T 0.000000
n -t 7.000000 -s 2 -x 25.928678 -y 53.131511 -U 0.000000 -V 0.000000 -T 0.000000
n -t 7.000000 -s 5 -x 60.276419 -y 72.709608 -U 0.000000 -V 0.000000 -T 0.000000
n -t 7.000000 -s 6 -x 65.642884 -y 50.738602 -U 0.000000 -V 0.000000 -T 0.000000
n -t 7.000000 -s 11 -x 15.986857 -y 70.778467 -U 0.000000 -V 0.000000 -T 0.000000
n -t 7.000000 -s 4 -x 72.849578 -y 72.156409 -U 0.000000 -V 0.000000 -T 0.000000
n -t 7.000000 -s 12 -x 49.823498 -y 27.111705 -U 0.000000 -V 0.000000 -T 0.000000
n -t 7.000000 -s 7 -x 54.583718 -y 39.402991 -U 0.000000 -V 0.000000 -T 0.000000
n -t 7.000000 -s 14 -x 23.452695 -y 31.641339 -U 0.000000 -V 0.000000 -T 0.000000
n -t 7.000000 -s 1 -x 39.908118 -y 2.250235 -U 0.000000 -V 0.000000 -T 0.000000
n -t 7.000000 -s 9 -x 65.657203 -y 27.145295 -U 0.000000 -V 0.000000 -T 0.000000
n -t 7.000000 -s 0 -x 72.304081 -y 19.922450 -U 0.000000 -V 0.000000 -T 0.000000
n -t 7.000000 -s 3 -x 66.899340 -y 6.702260 -U 0.000000 -V 0.000000 -T 0.000000
n -t 7.000000 -s 10 -x 49.934400 -y 6.419990 -U 0.000000 -V 0.000000 -T 0.000000
n -t 7.000000 -s 8 -x 70.414463 -y 43.555600 -U 0.000000 -V 0.000000 -T 0.000000
n -t 7.000000 -s 9 -x 65.657203 -y 27.145295 -U -0.688630 -V -0.725113 -T 7.984209
n -t 7.000000 -s 12 -x 49.823498 -y 27.111705 -U -0.917151 -V 0.398539 -T 11.817233
n -t 7.000000 -s 0 -x 72.304081 -y 19.922450 -U -0.993107 -V 0.117209 -T 12.229338
n -t 7.000000 -s 14 -x 23.452695 -y 31.641339 -U 0.999933 -V 0.011587 -T 15.533653
n -t 7.000000 -s 3 -x 66.899340 -y 6.702260 -U -0.417888 -V 0.908499 -T 16.129450
n -t 7.000000 -s 13 -x 30.326623 -y 54.819241 -U 0.929049 -V 0.369956 -T 17.291771
n -t 7.000000 -s 7 -x 54.583718 -y 39.402991 -U -0.899388 -V -0.437151 -T 17.343357
n -t 7.000000 -s 5 -x 60.276419 -y 72.709608 -U -0.770334 -V -0.637641 -T 18.024514
n -t 7.000000 -s 10 -x 49.934400 -y 6.419990 -U 0.564886 -V 0.825169 -T 18.100356
n -t 7.000000 -s 6 -x 65.642884 -y 50.738602 -U -0.878334 -V 0.478047 -T 21.918024
n -t 7.000000 -s 2 -x 25.928678 -y 53.131511 -U 0.930039 -V 0.367461 -T 22.002144
n -t 7.000000 -s 8 -x 70.414463 -y 43.555600 -U -0.419375 -V -0.907813 -T 24.454100
n -t 7.000000 -s 1 -x 39.908118 -y 2.250235 -U 0.727376 -V 0.686239 -T 27.841048
n -t 7.000000 -s 4 -x 72.849578 -y 72.156409 -U -0.924118 -V -0.382108 -T 28.630601
n -t 7.000000 -s 11 -x 15.986857 -y 70.778467 -U 0.953937 -V -0.300006 -T 31.872816
n -t 8.000000 -s 13 -x 31.255672 -y 55.189197 -U 0.000000 -V 0.000000 -T 0.000000
n -t 8.000000 -s 5 -x 59.506085 -y 72.071967 -U 0.000000 -V 0.000000 -T 0.000000
n -t 8.000000 -s 6 -x 64.764550 -y 51.216648 -U 0.000000 -V 0.000000 -T 0.000000
n -t 8.000000 -s 2 -x 26.858717 -y 53.498972 -U 0.000000 -V 0.000000 -T 0.000000
n -t 8.000000 -s 4 -x 71.925460 -y 71.774302 -U 0.000000 -V 0.000000 -T 0.000000
n -t 8.000000 -s 11 -x 16.940795 -y 70.478461 -U 0.000000 -V 0.000000 -T 0.000000
n -t 8.000000 -s 12 -x 48.906346 -y 27.510244 -U 0.000000 -V 0.000000 -T 0.000000
n -t 8.000000 -s 14 -x 24.452628 -y 31.652926 -U 0.000000 -V 0.000000 -T 0.000000
n -t 8.000000 -s 7 -x 53.684330 -y 38.965841 -U 0.000000 -V 0.000000 -T 0.000000
n -t 8.000000 -s 9 -x 64.968573 -y 26.420182 -U 0.000000 -V 0.000000 -T 0.000000
n -t 8.000000 -s 0 -x 71.310974 -y 20.039659 -U 0.000000 -V 0.000000 -T 0.000000
n -t 8.000000 -s 3 -x 66.481452 -y 7.610759 -U 0.000000 -V 0.000000 -T 0.000000
n -t 8.000000 -s 10 -x 50.499286 -y 7.245159 -U 0.000000 -V 0.000000 -T 0.000000
n -t 8.000000 -s 8 -x 69.995089 -y 42.647787 -U 0.000000 -V 0.000000 -T 0.000000
n -t 8.000000 -s 1 -x 40.635494 -y 2.936474 -U 0.000000 -V 0.000000 -T 0.000000
n -t 8.000000 -s 10 -x 50.499286 -y 7.245159 -U 0.503818 -V 0.863810 -T 11.460326
n -t 8.000000 -s 12 -x 48.906346 -y 27.510244 -U -0.918114 -V 0.396316 -T 12.634662
n -t 8.000000 -s 9 -x 64.968573 -y 26.420182 -U -0.683924 -V -0.729553 -T 12.713928
n -t 8.000000 -s 14 -x 24.452628 -y 31.652926 -U 0.997745 -V 0.067116 -T 12.882703
n -t 8.000000 -s 3 -x 66.481452 -y 7.610759 -U -0.730832 -V 0.682557 -T 13.967975
n -t 8.000000 -s 0 -x 71.310974 -y 20.039659 -U -0.981969 -V -0.189041 -T 15.313891
n -t 8.000000 -s 5 -x 59.506085 -y 72.071967 -U -0.679287 -V -0.733873 -T 15.337381
n -t 8.000000 -s 7 -x 53.684330 -y 38.965841 -U -0.930480 -V -0.366344 -T 17.601724
n -t 8.000000 -s 6 -x 64.764550 -y 51.216648 -U -0.852815 -V 0.522213 -T 18.382595
n -t 8.000000 -s 13 -x 31.255672 -y 55.189197 -U 0.953645 -V 0.300934 -T 18.698709
n -t 8.000000 -s 1 -x 40.635494 -y 2.936474 -U 0.740126 -V 0.672469 -T 21.128458
n -t 8.000000 -s 2 -x 26.858717 -y 53.498972 -U 0.949860 -V 0.312675 -T 23.402270
n -t 8.000000 -s 4 -x 71.925460 -y 71.774302 -U -0.901587 -V -0.432598 -T 25.330734
n -t 8.000000 -s 8 -x 69.995089 -y 42.647787 -U -0.754819 -V 0.655933 -T 27.698690
n -t 8.000000 -s 11 -x 16.940795 -y 70.478461 -U 0.957677 -V -0.287844 -T 33.567464
n -t 9.000000 -s 5 -x 58.826798 -y 71.338094 -U 0.000000 -V 0.000000 -T 0.000000
n -t 9.000000 -s 6 -x 63.911735 -y 51.738862 -U 0.000000 -V 0.000000 -T 0.000000
n -t 9.000000 -s 13 -x 32.209317 -y 55.490132 -U 0.000000 -V 0.000000 -T 0.000000
n -t 9.000000 -s 2 -x 27.808577 -y 53.811647 -U 0.000000 -V 0.000000 -T 0.000000
n -t 9.000000 -s 4 -x 71.023873 -y 71.341704 -U 0.000000 -V 0.000000 -T 0.000000
n -t 9.000000 -s 8 -x 69.240270 -y 43.303720 -U 0.000000 -V 0.000000 -T 0.000000
n -t 9.000000 -s 11 -x 17.898472 -y 70.190617 -U 0.000000 -V 0.000000 -T 0.000000
n -t 9.000000 -s 12 -x 47.988232 -y 27.906560 -U 0.000000 -V 0.000000 -T 0.000000
n -t 9.000000 -s 14 -x 25.450373 -y 31.720042 -U 0.000000 -V 0.000000 -T 0.000000
n -t 9.000000 -s 7 -x 52.753850 -y 38.599497 -U 0.000000 -V 0.000000 -T 0.000000
n -t 9.000000 -s 10 -x 51.003104 -y 8.108969 -U 0.000000 -V 0.000000 -T 0.000000
n -t 9.000000 -s 9 -x 64.284648 -y 25.690629 -U 0.000000 -V 0.000000 -T 0.000000
n -t 9.000000 -s 3 -x 65.750620 -y 8.293316 -U 0.000000 -V 0.000000 -T 0.000000
n -t 9.000000 -s 0 -x 70.329005 -y 19.850618 -U 0.000000 -V 0.000000 -T 0.000000
n -t 9.000000 -s 1 -x 41.375620 -y 3.608942 -U 0.000000 -V 0.000000 -T 0.000000
n -t 9.000000 -s 10 -x 51.003104 -y 8.108969 -U 0.432806 -V 0.901487 -T 7.687476
n -t 9.000000 -s 14 -x 25.450373 -y 31.720042 -U 0.989399 -V 0.145223 -T 10.285929
n -t 9.000000 -s 5 -x 58.826798 -y 71.338094 -U -0.541948 -V -0.840412 -T 12.995962
n -t 9.000000 -s 3 -x 65.750620 -y 8.293316 -U -0.861011 -V 0.508586 -T 13.263858
n -t 9.000000 -s 12 -x 47.988232 -y 27.906560 -U -0.918884 -V 0.394527 -T 13.452149
n -t 9.000000 -s 9 -x 64.284648 -y 25.690629 -U -0.682793 -V -0.730612 -T 14.578879
n -t 9.000000 -s 6 -x 63.911735 -y 51.738862 -U -0.813278 -V 0.581876 -T 14.912576
n -t 9.000000 -s 0 -x 70.329005 -y 19.850618 -U -0.957630 -V -0.288000 -T 16.706564
n -t 9.000000 -s 1 -x 41.375620 -y 3.608942 -U 0.749849 -V 0.661608 -T 17.276361
n -t 9.000000 -s 7 -x 52.753850 -y 38.599497 -U -0.953945 -V -0.299982 -T 17.953436
n -t 9.000000 -s 13 -x 32.209317 -y 55.490132 -U 0.969764 -V 0.244046 -T 20.184664
n -t 9.000000 -s 2 -x 27.808577 -y 53.811647 -U 0.354881 -V -0.934912 -T 22.031874
n -t 9.000000 -s 4 -x 71.023873 -y 71.341704 -U -0.869580 -V -0.493792 -T 22.125860
n -t 9.000000 -s 8 -x 69.240270 -y 43.303720 -U -0.714112 -V 0.700032 -T 24.445192
n -t 9.000000 -s 11 -x 17.898472 -y 70.190617 -U 0.960824 -V -0.277158 -T 35.266800
n -t 9.000000 -s 3 -x 65.750620 -y 8.293316 -U 0.000000 -V 0.000000 -T 0.000000
n -t 9.000000 -s 9 -x 64.284648 -y 25.690629 -U 0.000000 -V 0.000000 -T 0.000000
n -t 9.000000 -s 0 -x 70.329005 -y 19.850618 -U 0.000000 -V 0.000000 -T 0.000000
n -t 9.000000 -s 1 -x 41.375620 -y 3.608942 -U 0.000000 -V 0.000000 -T 0.000000
