n -t * -s 0  -x 56.500990000000002 -y 8.6998320000000007 -Z 0 -z 1  -v circle -c black
n -t * -s 1  -x 67.402709999999999 -y 41.867829999999998 -Z 0 -z 1  -v circle -c black
n -t * -s 2  -x 1.1478710000000001 -y 10.507960000000001 -Z 0 -z 1  -v circle -c black
n -t * -s 3  -x 10.751379999999999 -y 51.10868 -Z 0 -z 1  -v circle -c black
n -t * -s 4  -x 47.609850000000002 -y 6.9126250000000002 -Z 0 -z 1  -v circle -c black
n -t * -s 5  -x 51.681440000000002 -y 99.679280000000006 -Z 0 -z 1  -v circle -c black
n -t * -s 6  -x 79.358590000000007 -y 65.940619999999996 -Z 0 -z 1  -v circle -c black
n -t * -s 7  -x 2.107755 -y 62.148060000000001 -Z 0 -z 1  -v circle -c black
n -t * -s 8  -x 38.748600000000003 -y 22.414719999999999 -Z 0 -z 1  -v circle -c black
n -t * -s 9  -x 75.150180000000006 -y 45.940890000000003 -Z 0 -z 1  -v circle -c black
n -t * -s 10  -x 54.418190000000003 -y 81.947990000000004 -Z 0 -z 1  -v circle -c black
n -t * -s 11  -x 5.3209070000000001 -y 54.406889999999997 -Z 0 -z 1  -v circle -c black
n -t * -s 12  -x 89.841480000000004 -y 99.08569 -Z 0 -z 1  -v circle -c black
n -t * -s 13  -x 65.484359999999995 -y 76.702430000000007 -Z 0 -z 1  -v circle -c black
n -t * -s 14  -x 2.4649160000000001 -y 75.709019999999995 -Z 0 -z 1  -v circle -c black
n -t * -s 15  -x 85.907790000000006 -y 33.436979999999998 -Z 0 -z 1  -v circle -c black
n -t * -s 16  -x 80.641120000000001 -y 86.879279999999994 -Z 0 -z 2  -v circle -c black
V -t * -v 1.0a5 -a 0
W -t * -x 100 -y 100
A -t * -n 1 -p 0 -o 0x7fffffff -c 30 -a 1
A -t * -h 1 -m 1073741823 -s 0
n -t 0 -s 16 -S COLOR -c red -o black -i red -I black
n -t 0.000000 -s 16 -x 80.641120 -y 86.879280 -U -0.050655 -V -1.356119 -T 21.485558
n -t 29.000000 -s 16 -x 79.552770 -y 57.742300 -U -0.164618 -V -2.335530 -T 21.517060
n -t 58.000000 -s 16 -x 76.010670 -y 7.488567 -U -1.060863 -V 2.671374 -T 17.572286
n -t 82.000000 -s 16 -x 57.368890 -y 54.430720 -U -0.851019 -V 0.755091 -T 54.509586
