n -t * -s 0  -x 77.653139999999993 -y 89.420770000000005 -Z 0 -z 1  -v circle -c black
n -t * -s 1  -x 83.589650000000006 -y 39.129280000000001 -Z 0 -z 1  -v circle -c black
n -t * -s 2  -x 64.746120000000005 -y 54.119199999999999 -Z 0 -z 1  -v circle -c black
n -t * -s 3  -x 90.672420000000002 -y 90.392859999999999 -Z 0 -z 1  -v circle -c black
n -t * -s 4  -x 88.915099999999995 -y 18.145949999999999 -Z 0 -z 1  -v circle -c black
n -t * -s 5  -x 73.990499999999997 -y 75.21266 -Z 0 -z 1  -v circle -c black
n -t * -s 6  -x 78.905109999999993 -y 65.423349999999999 -Z 0 -z 1  -v circle -c black
n -t * -s 7  -x 44.30847 -y 69.001720000000006 -Z 0 -z 1  -v circle -c black
n -t * -s 8  -x 98.703019999999995 -y 75.968680000000006 -Z 0 -z 1  -v circle -c black
n -t * -s 9  -x 76.882429999999999 -y 45.214770000000001 -Z 0 -z 1  -v circle -c black
n -t * -s 10  -x 40.03351 -y 98.473349999999996 -Z 0 -z 1  -v circle -c black
n -t * -s 11  -x 43.400739999999999 -y 44.930059999999997 -Z 0 -z 1  -v circle -c black
n -t * -s 12  -x 53.327089999999998 -y 6.2448560000000004 -Z 0 -z 1  -v circle -c black
n -t * -s 13  -x 37.402700000000003 -y 10.90278 -Z 0 -z 1  -v circle -c black
n -t * -s 14  -x 56.997630000000001 -y 51.51267 -Z 0 -z 1  -v circle -c black
n -t * -s 15  -x 75.785790000000006 -y 42.320869999999999 -Z 0 -z 1  -v circle -c black
n -t * -s 16  -x 8.8954900000000006 -y 37.767150000000001 -Z 0 -z 1  -v circle -c black
n -t * -s 17  -x 75.622609999999995 -y 83.678740000000005 -Z 0 -z 1  -v circle -c black
n -t * -s 18  -x 34.096690000000002 -y 21.72906 -Z 0 -z 1  -v circle -c black
n -t * -s 19  -x 1.35606 -y 82.359070000000003 -Z 0 -z 1  -v circle -c black
n -t * -s 20  -x 6.8229199999999999 -y 54.432319999999997 -Z 0 -z 2  -v circle -c black
V -t * -v 1.0a5 -a 0
W -t * -x 100 -y 100
A -t * -n 1 -p 0 -o 0x7fffffff -c 30 -a 1
A -t * -h 1 -m 1073741823 -s 0
n -t 0 -s 20 -S COLOR -c red -o black -i red -I black
n -t 0.000000 -s 20 -x 6.822920 -y 54.432320 -U 0.965885 -V 0.192090 -T 96.029792
n -t 0.000000 -s 7 -x 44.308470 -y 69.001720 -U -0.932074 -V -0.362267 -T 35.217333
n -t 0.000000 -s 11 -x 43.400740 -y 44.930060 -U -0.967874 -V 0.251436 -T 32.791929
n -t 0.000000 -s 16 -x 8.895490 -y 37.767150 -U -0.123415 -V 0.992355 -T 11.793553
n -t 0.000000 -s 19 -x 1.356060 -y 82.359070 -U 0.192111 -V -0.981373 -T 23.456808
n -t 1.000000 -s 7 -x 43.376396 -y 68.639453 -U -0.930447 -V -0.366427 -T 33.247850
n -t 1.000000 -s 11 -x 42.432866 -y 45.181496 -U -0.964802 -V 0.262976 -T 30.907932
n -t 1.000000 -s 16 -x 8.772075 -y 38.759505 -U -0.061859 -V 0.998085 -T 10.895346
n -t 1.000000 -s 18 -x 34.096690 -y 21.729060 -U -0.624574 -V 0.780966 -T 37.121359
n -t 1.000000 -s 19 -x 1.548171 -y 81.377697 -U 0.227168 -V -0.973856 -T 22.471510
n -t 2.000000 -s 7 -x 42.445949 -y 68.273026 -U -0.928666 -V -0.370916 -T 31.279181
n -t 2.000000 -s 11 -x 41.468064 -y 45.444472 -U -0.961327 -V 0.275410 -T 29.029395
n -t 2.000000 -s 16 -x 8.710216 -y 39.757590 -U 0.002953 -V 0.999996 -T 10.058976
n -t 2.000000 -s 18 -x 33.472116 -y 22.510026 -U -0.607644 -V 0.794210 -T 35.677505
n -t 2.000000 -s 19 -x 1.775338 -y 80.403841 -U 0.263152 -V -0.964754 -T 21.522130
n -t 3.000000 -s 7 -x 41.517282 -y 67.902110 -U -0.926709 -V -0.375779 -T 29.311417
n -t 3.000000 -s 11 -x 40.506737 -y 45.719882 -U -0.957373 -V 0.288856 -T 27.156925
n -t 3.000000 -s 16 -x 8.713170 -y 40.757586 -U 0.070514 -V 0.997511 -T 9.286568
n -t 3.000000 -s 18 -x 32.864473 -y 23.304236 -U -0.589607 -V 0.807690 -T 34.253103
n -t 3.000000 -s 19 -x 2.038490 -y 79.439087 -U 0.299966 -V -0.953950 -T 20.609833
n -t 4.000000 -s 7 -x 40.590573 -y 67.526331 -U -0.924545 -V -0.381072 -T 27.344668
n -t 4.000000 -s 11 -x 39.549364 -y 46.008737 -U -0.952847 -V 0.303452 -T 25.291236
n -t 4.000000 -s 16 -x 8.783684 -y 41.755097 -U 0.140121 -V 0.990134 -T 8.579555
n -t 4.000000 -s 18 -x 32.274866 -y 24.111926 -U -0.570378 -V 0.821382 -T 32.849305
n -t 4.000000 -s 19 -x 2.338457 -y 78.485137 -U 0.337488 -V -0.941330 -T 19.735704
n -t 5.000000 -s 7 -x 39.666028 -y 67.145259 -U -0.922138 -V -0.386861 -T 25.379060
n -t 5.000000 -s 11 -x 38.596517 -y 46.312190 -U -0.947632 -V 0.319366 -T 23.433172
n -t 5.000000 -s 16 -x 8.923805 -y 42.745231 -U 0.210885 -V 0.977511 -T 7.938517
n -t 5.000000 -s 18 -x 31.704488 -y 24.933309 -U -0.549866 -V 0.835253 -T 31.467345
n -t 5.000000 -s 19 -x 2.675945 -y 77.543807 -U 0.375570 -V -0.926794 -T 18.900715
n -t 6.000000 -s 7 -x 38.743890 -y 66.758398 -U -0.919440 -V -0.393230 -T 23.414748
n -t 6.000000 -s 11 -x 37.648886 -y 46.631555 -U -0.941578 -V 0.336796 -T 21.583742
n -t 6.000000 -s 16 -x 9.134690 -y 43.722742 -U 0.281770 -V 0.959482 -T 7.363048
n -t 6.000000 -s 18 -x 31.154623 -y 25.768562 -U -0.527974 -V 0.849261 -T 30.108539
n -t 6.000000 -s 19 -x 3.051515 -y 76.617013 -U 0.414041 -V -0.910258 -T 18.105702
n -t 7.000000 -s 7 -x 37.824450 -y 66.365167 -U -0.916392 -V -0.400282 -T 21.451919
n -t 7.000000 -s 11 -x 36.707308 -y 46.968352 -U -0.934491 -V 0.355987 -T 19.744159
n -t 7.000000 -s 16 -x 9.416460 -y 44.682224 -U 0.351651 -V 0.936131 -T 6.851682
n -t 7.000000 -s 18 -x 30.626649 -y 26.617822 -U -0.504601 -V 0.863353 -T 28.774291
n -t 7.000000 -s 19 -x 3.465556 -y 75.706755 -U 0.452705 -V -0.891660 -T 17.351338
n -t 8.000000 -s 7 -x 36.908058 -y 65.964886 -U -0.912916 -V -0.408147 -T 19.490804
n -t 8.000000 -s 11 -x 35.772818 -y 47.324339 -U -0.926117 -V 0.377236 -T 17.915906
n -t 8.000000 -s 16 -x 9.768112 -y 45.618355 -U 0.419394 -V 0.907804 -T 6.401895
n -t 8.000000 -s 18 -x 30.122048 -y 27.481175 -U -0.479640 -V 0.877465 -T 27.466092
n -t 8.000000 -s 19 -x 3.918261 -y 74.815095 -U 0.491343 -V -0.870966 -T 16.638106
n -t 9.000000 -s 7 -x 35.995141 -y 65.556739 -U -0.908909 -V -0.416995 -T 17.531694
n -t 9.000000 -s 11 -x 34.846700 -y 47.701575 -U -0.916117 -V 0.400911 -T 16.100815
n -t 9.000000 -s 14 -x 56.997630 -y 51.512670 -U -0.993780 -V 0.111363 -T 36.741384
n -t 9.000000 -s 16 -x 10.187506 -y 46.526159 -U 0.483950 -V 0.875096 -T 6.010194
n -t 9.000000 -s 18 -x 29.642408 -y 28.358641 -U -0.452983 -V 0.891519 -T 26.185527
n -t 9.000000 -s 19 -x 4.409605 -y 73.944129 -U 0.529721 -V -0.848172 -T 15.966270
n -t 10.000000 -s 7 -x 35.086233 -y 65.139744 -U -0.904228 -V -0.427049 -T 15.574957
n -t 10.000000 -s 11 -x 33.930584 -y 48.102486 -U -0.904028 -V 0.427473 -T 14.301182
n -t 10.000000 -s 14 -x 56.003850 -y 51.624033 -U -0.992917 -V 0.118812 -T 34.804017
n -t 10.000000 -s 16 -x 10.671456 -y 47.401255 -U 0.544431 -V 0.838806 -T 5.672279
n -t 10.000000 -s 18 -x 29.189425 -y 29.250160 -U -0.424519 -V 0.905419 -T 24.934269
n -t 10.000000 -s 19 -x 4.939326 -y 73.095957 -U 0.567591 -V -0.823311 -T 15.335861
n -t 11.000000 -s 7 -x 34.182004 -y 64.712695 -U -0.898678 -V -0.438610 -T 13.621075
n -t 11.000000 -s 11 -x 33.026555 -y 48.529959 -U -0.889210 -V 0.457499 -T 12.519929
n -t 11.000000 -s 14 -x 55.010933 -y 51.742845 -U -0.991926 -V 0.126818 -T 32.869028
n -t 11.000000 -s 16 -x 11.215887 -y 48.240060 -U 0.600175 -V 0.799869 -T 5.383266
n -t 11.000000 -s 18 -x 28.764906 -y 30.155579 -U -0.394136 -V 0.919052 -T 23.714076
n -t 11.000000 -s 19 -x 5.506917 -y 72.272646 -U 0.604697 -V -0.796456 -T 14.746654
n -t 12.000000 -s 7 -x 33.283327 -y 64.274085 -U -0.891971 -V -0.452092 -T 11.670693
n -t 12.000000 -s 11 -x 32.137345 -y 48.987458 -U -0.870753 -V 0.491721 -T 10.760849
n -t 12.000000 -s 14 -x 54.019007 -y 51.869663 -U -0.990784 -V 0.135453 -T 30.936665
n -t 12.000000 -s 16 -x 11.816061 -y 49.039929 -U 0.650771 -V 0.759274 -T 5.137943
n -t 12.000000 -s 18 -x 28.370770 -y 31.074631 -U -0.361729 -V 0.932283 -T 22.526791
n -t 12.000000 -s 19 -x 6.111614 -y 71.476191 -U 0.640787 -V -0.767719 -T 14.198160
n -t 13.000000 -s 7 -x 32.391355 -y 63.821993 -U -0.883680 -V -0.468091 -T 9.724699
n -t 13.000000 -s 11 -x 31.266593 -y 49.479180 -U -0.847330 -V 0.531067 -T 9.028964
n -t 13.000000 -s 14 -x 53.028224 -y 52.005116 -U -0.989460 -V 0.144804 -T 29.007217
n -t 13.000000 -s 16 -x 12.466833 -y 49.799203 -U 0.696062 -V 0.717982 -T 4.931014
n -t 13.000000 -s 18 -x 28.009042 -y 32.006914 -U -0.327197 -V 0.944956 -T 21.374328
n -t 13.000000 -s 19 -x 6.752401 -y 70.708472 -U 0.675617 -V -0.737253 -T 13.689625
n -t 13.000000 -s 7 -x 32.391355 -y 63.821993 -U 0.000000 -V 0.000000 -T 0.000000
n -t 13.000000 -s 11 -x 31.266593 -y 49.479180 -U 0.000000 -V 0.000000 -T 0.000000
n -t 13.000000 -s 14 -x 53.028224 -y 52.005116 -U 0.000000 -V 0.000000 -T 0.000000
n -t 13.000000 -s 18 -x 28.009042 -y 32.006914 -U 0.000000 -V 0.000000 -T 0.000000
n -t 13.000000 -s 19 -x 6.752401 -y 70.708472 -U 0.000000 -V 0.000000 -T 0.000000
n -t 14.000000 -s 7 -x 32.391355 -y 63.821993 -U 0.000000 -V 0.000000 -T 0.000000
n -t 14.000000 -s 11 -x 31.266593 -y 49.479180 -U 0.000000 -V 0.000000 -T 0.000000
n -t 14.000000 -s 14 -x 53.028224 -y 52.005116 -U 0.000000 -V 0.000000 -T 0.000000
n -t 14.000000 -s 18 -x 28.009042 -y 32.006914 -U 0.000000 -V 0.000000 -T 0.000000
n -t 14.000000 -s 19 -x 6.752401 -y 70.708472 -U 0.000000 -V 0.000000 -T 0.000000
n -t 15.000000 -s 7 -x 32.391355 -y 63.821993 -U 0.000000 -V 0.000000 -T 0.000000
n -t 15.000000 -s 11 -x 31.266593 -y 49.479180 -U 0.000000 -V 0.000000 -T 0.000000
n -t 15.000000 -s 14 -x 53.028224 -y 52.005116 -U 0.000000 -V 0.000000 -T 0.000000
n -t 15.000000 -s 18 -x 28.009042 -y 32.006914 -U 0.000000 -V 0.000000 -T 0.000000
n -t 15.000000 -s 19 -x 6.752401 -y 70.708472 -U 0.000000 -V 0.000000 -T 0.000000
n -t 16.000000 -s 7 -x 32.391355 -y 63.821993 -U 0.000000 -V 0.000000 -T 0.000000
n -t 16.000000 -s 11 -x 31.266593 -y 49.479180 -U 0.000000 -V 0.000000 -T 0.000000
n -t 16.000000 -s 14 -x 53.028224 -y 52.005116 -U 0.000000 -V 0.000000 -T 0.000000
n -t 16.000000 -s 18 -x 28.009042 -y 32.006914 -U 0.000000 -V 0.000000 -T 0.000000
n -t 16.000000 -s 19 -x 6.752401 -y 70.708472 -U 0.000000 -V 0.000000 -T 0.000000
n -t 17.000000 -s 7 -x 32.391355 -y 63.821993 -U 0.000000 -V 0.000000 -T 0.000000
n -t 17.000000 -s 11 -x 31.266593 -y 49.479180 -U 0.000000 -V 0.000000 -T 0.000000
n -t 17.000000 -s 14 -x 53.028224 -y 52.005116 -U 0.000000 -V 0.000000 -T 0.000000
n -t 17.000000 -s 18 -x 28.009042 -y 32.006914 -U 0.000000 -V 0.000000 -T 0.000000
n -t 17.000000 -s 19 -x 6.752401 -y 70.708472 -U 0.000000 -V 0.000000 -T 0.000000
n -t 18.000000 -s 7 -x 32.391355 -y 63.821993 -U 0.000000 -V 0.000000 -T 0.000000
n -t 18.000000 -s 11 -x 31.266593 -y 49.479180 -U 0.000000 -V 0.000000 -T 0.000000
n -t 18.000000 -s 14 -x 53.028224 -y 52.005116 -U 0.000000 -V 0.000000 -T 0.000000
n -t 18.000000 -s 18 -x 28.009042 -y 32.006914 -U 0.000000 -V 0.000000 -T 0.000000
n -t 18.000000 -s 19 -x 6.752401 -y 70.708472 -U 0.000000 -V 0.000000 -T 0.000000
n -t 19.000000 -s 11 -x 31.266593 -y 49.479180 -U 0.000000 -V 0.000000 -T 0.000000
n -t 19.000000 -s 14 -x 53.028224 -y 52.005116 -U 0.000000 -V 0.000000 -T 0.000000
n -t 19.000000 -s 16 -x 15.899122 -y 53.339583 -U 0.000000 -V 0.000000 -T 0.000000
n -t 19.000000 -s 18 -x 28.009042 -y 32.006914 -U 0.000000 -V 0.000000 -T 0.000000
n -t 19.000000 -s 19 -x 6.752401 -y 70.708472 -U 0.000000 -V 0.000000 -T 0.000000
n -t 20.000000 -s 11 -x 31.266593 -y 49.479180 -U 0.000000 -V 0.000000 -T 0.000000
n -t 20.000000 -s 14 -x 53.028224 -y 52.005116 -U 0.000000 -V 0.000000 -T 0.000000
n -t 20.000000 -s 16 -x 15.899122 -y 53.339583 -U 0.000000 -V 0.000000 -T 0.000000
n -t 20.000000 -s 18 -x 28.009042 -y 32.006914 -U 0.000000 -V 0.000000 -T 0.000000
n -t 20.000000 -s 19 -x 6.752401 -y 70.708472 -U 0.000000 -V 0.000000 -T 0.000000
n -t 21.000000 -s 11 -x 31.266593 -y 49.479180 -U 0.000000 -V 0.000000 -T 0.000000
n -t 21.000000 -s 14 -x 53.028224 -y 52.005116 -U 0.000000 -V 0.000000 -T 0.000000
n -t 21.000000 -s 16 -x 15.899122 -y 53.339583 -U 0.000000 -V 0.000000 -T 0.000000
n -t 21.000000 -s 18 -x 28.009042 -y 32.006914 -U 0.000000 -V 0.000000 -T 0.000000
n -t 21.000000 -s 19 -x 6.752401 -y 70.708472 -U 0.000000 -V 0.000000 -T 0.000000
n -t 22.000000 -s 11 -x 31.266593 -y 49.479180 -U 0.000000 -V 0.000000 -T 0.000000
n -t 22.000000 -s 14 -x 53.028224 -y 52.005116 -U 0.000000 -V 0.000000 -T 0.000000
n -t 22.000000 -s 16 -x 15.899122 -y 53.339583 -U 0.000000 -V 0.000000 -T 0.000000
n -t 22.000000 -s 18 -x 28.009042 -y 32.006914 -U 0.000000 -V 0.000000 -T 0.000000
n -t 22.000000 -s 19 -x 6.752401 -y 70.708472 -U 0.000000 -V 0.000000 -T 0.000000
n -t 23.000000 -s 11 -x 31.266593 -y 49.479180 -U 0.000000 -V 0.000000 -T 0.000000
n -t 23.000000 -s 14 -x 53.028224 -y 52.005116 -U 0.000000 -V 0.000000 -T 0.000000
n -t 23.000000 -s 16 -x 15.899122 -y 53.339583 -U 0.000000 -V 0.000000 -T 0.000000
n -t 23.000000 -s 18 -x 28.009042 -y 32.006914 -U 0.000000 -V 0.000000 -T 0.000000
n -t 23.000000 -s 19 -x 6.752401 -y 70.708472 -U 0.000000 -V 0.000000 -T 0.000000
n -t 24.000000 -s 11 -x 31.266593 -y 49.479180 -U 0.000000 -V 0.000000 -T 0.000000
n -t 24.000000 -s 14 -x 53.028224 -y 52.005116 -U 0.000000 -V 0.000000 -T 0.000000
n -t 24.000000 -s 16 -x 15.899122 -y 53.339583 -U 0.000000 -V 0.000000 -T 0.000000
n -t 24.000000 -s 18 -x 28.009042 -y 32.006914 -U 0.000000 -V 0.000000 -T 0.000000
n -t 24.000000 -s 19 -x 6.752401 -y 70.708472 -U 0.000000 -V 0.000000 -T 0.000000
n -t 25.000000 -s 11 -x 31.266593 -y 49.479180 -U 0.000000 -V 0.000000 -T 0.000000
n -t 25.000000 -s 14 -x 53.028224 -y 52.005116 -U 0.000000 -V 0.000000 -T 0.000000
n -t 25.000000 -s 16 -x 15.899122 -y 53.339583 -U 0.000000 -V 0.000000 -T 0.000000
n -t 25.000000 -s 18 -x 28.009042 -y 32.006914 -U 0.000000 -V 0.000000 -T 0.000000
n -t 25.000000 -s 19 -x 6.752401 -y 70.708472 -U 0.000000 -V 0.000000 -T 0.000000
n -t 26.000000 -s 11 -x 31.266593 -y 49.479180 -U 0.000000 -V 0.000000 -T 0.000000
n -t 26.000000 -s 14 -x 53.028224 -y 52.005116 -U 0.000000 -V 0.000000 -T 0.000000
n -t 26.000000 -s 16 -x 15.899122 -y 53.339583 -U 0.000000 -V 0.000000 -T 0.000000
n -t 26.000000 -s 18 -x 28.009042 -y 32.006914 -U 0.000000 -V 0.000000 -T 0.000000
n -t 26.000000 -s 19 -x 6.752401 -y 70.708472 -U 0.000000 -V 0.000000 -T 0.000000
n -t 27.000000 -s 11 -x 31.266593 -y 49.479180 -U 0.000000 -V 0.000000 -T 0.000000
n -t 27.000000 -s 14 -x 53.028224 -y 52.005116 -U 0.000000 -V 0.000000 -T 0.000000
n -t 27.000000 -s 16 -x 15.899122 -y 53.339583 -U 0.000000 -V 0.000000 -T 0.000000
n -t 27.000000 -s 18 -x 28.009042 -y 32.006914 -U 0.000000 -V 0.000000 -T 0.000000
n -t 27.000000 -s 19 -x 6.752401 -y 70.708472 -U 0.000000 -V 0.000000 -T 0.000000
n -t 28.000000 -s 11 -x 31.266593 -y 49.479180 -U 0.000000 -V 0.000000 -T 0.000000
n -t 28.000000 -s 14 -x 53.028224 -y 52.005116 -U 0.000000 -V 0.000000 -T 0.000000
n -t 28.000000 -s 16 -x 15.899122 -y 53.339583 -U 0.000000 -V 0.000000 -T 0.000000
n -t 28.000000 -s 18 -x 28.009042 -y 32.006914 -U 0.000000 -V 0.000000 -T 0.000000
n -t 28.000000 -s 19 -x 6.752401 -y 70.708472 -U 0.000000 -V 0.000000 -T 0.000000
n -t 29.000000 -s 11 -x 31.266593 -y 49.479180 -U 0.000000 -V 0.000000 -T 0.000000
n -t 29.000000 -s 14 -x 53.028224 -y 52.005116 -U 0.000000 -V 0.000000 -T 0.000000
n -t 29.000000 -s 16 -x 15.899122 -y 53.339583 -U 0.000000 -V 0.000000 -T 0.000000
n -t 29.000000 -s 18 -x 28.009042 -y 32.006914 -U 0.000000 -V 0.000000 -T 0.000000
n -t 29.000000 -s 19 -x 6.752401 -y 70.708472 -U 0.000000 -V 0.000000 -T 0.000000
n -t 30.000000 -s 11 -x 31.266593 -y 49.479180 -U 0.000000 -V 0.000000 -T 0.000000
n -t 30.000000 -s 14 -x 53.028224 -y 52.005116 -U 0.000000 -V 0.000000 -T 0.000000
n -t 30.000000 -s 16 -x 15.899122 -y 53.339583 -U 0.000000 -V 0.000000 -T 0.000000
n -t 30.000000 -s 18 -x 28.009042 -y 32.006914 -U 0.000000 -V 0.000000 -T 0.000000
n -t 30.000000 -s 19 -x 6.752401 -y 70.708472 -U 0.000000 -V 0.000000 -T 0.000000
n -t 31.000000 -s 11 -x 31.266593 -y 49.479180 -U 0.000000 -V 0.000000 -T 0.000000
n -t 31.000000 -s 14 -x 53.028224 -y 52.005116 -U 0.000000 -V 0.000000 -T 0.000000
n -t 31.000000 -s 16 -x 15.899122 -y 53.339583 -U 0.000000 -V 0.000000 -T 0.000000
n -t 31.000000 -s 18 -x 28.009042 -y 32.006914 -U 0.000000 -V 0.000000 -T 0.000000
n -t 31.000000 -s 19 -x 6.752401 -y 70.708472 -U 0.000000 -V 0.000000 -T 0.000000
n -t 32.000000 -s 11 -x 31.266593 -y 49.479180 -U 0.000000 -V 0.000000 -T 0.000000
n -t 32.000000 -s 14 -x 53.028224 -y 52.005116 -U 0.000000 -V 0.000000 -T 0.000000
n -t 32.000000 -s 16 -x 15.899122 -y 53.339583 -U 0.000000 -V 0.000000 -T 0.000000
n -t 32.000000 -s 18 -x 28.009042 -y 32.006914 -U 0.000000 -V 0.000000 -T 0.000000
n -t 32.000000 -s 19 -x 6.752401 -y 70.708472 -U 0.000000 -V 0.000000 -T 0.000000
n -t 33.000000 -s 11 -x 31.266593 -y 49.479180 -U 0.000000 -V 0.000000 -T 0.000000
n -t 33.000000 -s 14 -x 53.028224 -y 52.005116 -U 0.000000 -V 0.000000 -T 0.000000
n -t 33.000000 -s 16 -x 15.899122 -y 53.339583 -U 0.000000 -V 0.000000 -T 0.000000
n -t 33.000000 -s 18 -x 28.009042 -y 32.006914 -U 0.000000 -V 0.000000 -T 0.000000
n -t 33.000000 -s 19 -x 6.752401 -y 70.708472 -U 0.000000 -V 0.000000 -T 0.000000
n -t 34.000000 -s 11 -x 31.266593 -y 49.479180 -U 0.000000 -V 0.000000 -T 0.000000
n -t 34.000000 -s 14 -x 53.028224 -y 52.005116 -U 0.000000 -V 0.000000 -T 0.000000
n -t 34.000000 -s 16 -x 15.899122 -y 53.339583 -U 0.000000 -V 0.000000 -T 0.000000
n -t 34.000000 -s 18 -x 28.009042 -y 32.006914 -U 0.000000 -V 0.000000 -T 0.000000
n -t 34.000000 -s 19 -x 6.752401 -y 70.708472 -U 0.000000 -V 0.000000 -T 0.000000
n -t 35.000000 -s 11 -x 31.266593 -y 49.479180 -U 0.000000 -V 0.000000 -T 0.000000
n -t 35.000000 -s 14 -x 53.028224 -y 52.005116 -U 0.000000 -V 0.000000 -T 0.000000
n -t 35.000000 -s 16 -x 15.899122 -y 53.339583 -U 0.000000 -V 0.000000 -T 0.000000
n -t 35.000000 -s 18 -x 28.009042 -y 32.006914 -U 0.000000 -V 0.000000 -T 0.000000
n -t 35.000000 -s 19 -x 6.752401 -y 70.708472 -U 0.000000 -V 0.000000 -T 0.000000
n -t 36.000000 -s 11 -x 31.266593 -y 49.479180 -U 0.000000 -V 0.000000 -T 0.000000
n -t 36.000000 -s 14 -x 53.028224 -y 52.005116 -U 0.000000 -V 0.000000 -T 0.000000
n -t 36.000000 -s 16 -x 15.899122 -y 53.339583 -U 0.000000 -V 0.000000 -T 0.000000
n -t 36.000000 -s 18 -x 28.009042 -y 32.006914 -U 0.000000 -V 0.000000 -T 0.000000
n -t 36.000000 -s 19 -x 6.752401 -y 70.708472 -U 0.000000 -V 0.000000 -T 0.000000
n -t 38.000000 -s 2 -x 64.746120 -y 54.119200 -U -0.941261 -V 0.337679 -T 17.543746
n -t 38.000000 -s 5 -x 73.990500 -y 75.212660 -U -0.914463 -V -0.404669 -T 28.313456
n -t 38.000000 -s 6 -x 78.905110 -y 65.423350 -U -0.994600 -V -0.103782 -T 30.570626
n -t 38.000000 -s 7 -x 32.391355 -y 63.821993 -U 0.982834 -V -0.184492 -T 6.329695
n -t 38.000000 -s 9 -x 76.882430 -y 45.214770 -U -0.896150 -V 0.443751 -T 32.221291
n -t 38.000000 -s 10 -x 40.033510 -y 98.473350 -U 0.094644 -V -0.995511 -T 31.907269
n -t 38.000000 -s 11 -x 31.266593 -y 49.479180 -U 0.707320 -V 0.706893 -T 12.332985
n -t 38.000000 -s 14 -x 53.028224 -y 52.005116 -U -0.698786 -V 0.715331 -T 8.597388
n -t 38.000000 -s 15 -x 75.785790 -y 42.320870 -U -0.856844 -V 0.515576 -T 32.648904
n -t 38.000000 -s 16 -x 15.899122 -y 53.339583 -U 0.956830 -V 0.290649 -T 23.873933
n -t 38.000000 -s 17 -x 75.622610 -y 83.678740 -U -0.825469 -V -0.564448 -T 33.882213
n -t 38.000000 -s 18 -x 28.009042 -y 32.006914 -U 0.462775 -V 0.886476 -T 28.531469
n -t 38.000000 -s 19 -x 6.752401 -y 70.708472 -U 0.971475 -V -0.237141 -T 32.853937
n -t 39.000000 -s 2 -x 63.804859 -y 54.456879 -U -0.932711 -V 0.360624 -T 15.705668
n -t 39.000000 -s 5 -x 73.076037 -y 74.807991 -U -0.911664 -V -0.410936 -T 26.353195
n -t 39.000000 -s 6 -x 77.910510 -y 65.319568 -U -0.994877 -V -0.101093 -T 28.590144
n -t 39.000000 -s 7 -x 33.374189 -y 63.637501 -U 0.988329 -V -0.152331 -T 6.249548
n -t 39.000000 -s 9 -x 75.986280 -y 45.658521 -U -0.888501 -V 0.458875 -T 30.446044
n -t 39.000000 -s 10 -x 40.128154 -y 97.477839 -U 0.121837 -V -0.992550 -T 30.820857
n -t 39.000000 -s 11 -x 31.973913 -y 50.186073 -U 0.729490 -V 0.683992 -T 12.160680
n -t 39.000000 -s 14 -x 52.329438 -y 52.720447 -U -0.648326 -V 0.761363 -T 7.088046
n -t 39.000000 -s 15 -x 74.928946 -y 42.836446 -U -0.847189 -V 0.531291 -T 30.926439
n -t 39.000000 -s 16 -x 16.855952 -y 53.630232 -U 0.957801 -V 0.287432 -T 23.854115
n -t 39.000000 -s 17 -x 74.797141 -y 83.114292 -U -0.819522 -V -0.573048 -T 31.978502
n -t 39.000000 -s 18 -x 28.471817 -y 32.893390 -U 0.483166 -V 0.875529 -T 28.157620
n -t 39.000000 -s 19 -x 7.723876 -y 70.471331 -U 0.974028 -V -0.226430 -T 32.749007
n -t 40.000000 -s 0 -x 77.653140 -y 89.420770 -U -0.762649 -V -0.646813 -T 37.214449
n -t 40.000000 -s 2 -x 62.872147 -y 54.817503 -U -0.922273 -V 0.386540 -T 13.881418
n -t 40.000000 -s 5 -x 72.164372 -y 74.397056 -U -0.908538 -V -0.417803 -T 24.394531
n -t 40.000000 -s 6 -x 76.915633 -y 65.218475 -U -0.995172 -V -0.098151 -T 26.609926
n -t 40.000000 -s 7 -x 34.362518 -y 63.485170 -U 0.992472 -V -0.122472 -T 6.179980
n -t 40.000000 -s 9 -x 75.097779 -y 46.117396 -U -0.879989 -V 0.474993 -T 28.681595
n -t 40.000000 -s 10 -x 40.249991 -y 96.485289 -U 0.149830 -V -0.988712 -T 29.761754
n -t 40.000000 -s 11 -x 32.703402 -y 50.870065 -U 0.750085 -V 0.661341 -T 12.004640
n -t 40.000000 -s 14 -x 51.681112 -y 53.481811 -U -0.584689 -V 0.811258 -T 5.642885
n -t 40.000000 -s 15 -x 74.081757 -y 43.367737 -U -0.836529 -V 0.547922 -T 29.216883
n -t 40.000000 -s 16 -x 17.813753 -y 53.917664 -U 0.958729 -V 0.284320 -T 23.834606
n -t 40.000000 -s 17 -x 73.977619 -y 82.541244 -U -0.812999 -V -0.582265 -T 30.079097
n -t 40.000000 -s 18 -x 28.954982 -y 33.768919 -U 0.503134 -V 0.864209 -T 27.801124
n -t 40.000000 -s 19 -x 8.697904 -y 70.244901 -U 0.976412 -V -0.215918 -T 32.648498
n -t 41.000000 -s 0 -x 76.890491 -y 88.773957 -U -0.754930 -V -0.655805 -T 35.356405
n -t 41.000000 -s 2 -x 61.949875 -y 55.204043 -U -0.909330 -V 0.416076 -T 12.073736
n -t 41.000000 -s 5 -x 71.255835 -y 73.979253 -U -0.905018 -V -0.425372 -T 22.437688
n -t 41.000000 -s 6 -x 75.920461 -y 65.120324 -U -0.995485 -V -0.094914 -T 24.630007
n -t 41.000000 -s 7 -x 35.354990 -y 63.362697 -U 0.995492 -V -0.094850 -T 6.119361
n -t 41.000000 -s 9 -x 74.217790 -y 46.592390 -U -0.870479 -V 0.492205 -T 26.929040
n -t 41.000000 -s 10 -x 40.399820 -y 95.496577 -U 0.178602 -V -0.983921 -T 28.730900
n -t 41.000000 -s 11 -x 33.453488 -y 51.531406 -U 0.769163 -V 0.639052 -T 11.863432
n -t 41.000000 -s 14 -x 51.096423 -y 54.293068 -U -0.503615 -V 0.863928 -T 4.277336
n -t 41.000000 -s 15 -x 73.245228 -y 43.915660 -U -0.824717 -V 0.565545 -T 27.521461
n -t 41.000000 -s 16 -x 18.772482 -y 54.201985 -U 0.959617 -V 0.281309 -T 23.815385
n -t 41.000000 -s 17 -x 73.164620 -y 81.958980 -U -0.805811 -V -0.592173 -T 28.184472
n -t 41.000000 -s 18 -x 29.458116 -y 34.633128 -U 0.522653 -V 0.852545 -T 27.461491
n -t 41.000000 -s 19 -x 9.674315 -y 70.028984 -U 0.978635 -V -0.205606 -T 32.552213
n -t 41.000000 -s 0 -x 76.890491 -y 88.773957 -U 0.000000 -V 0.000000 -T 0.000000
n -t 41.000000 -s 2 -x 61.949875 -y 55.204043 -U 0.000000 -V 0.000000 -T 0.000000
n -t 41.000000 -s 5 -x 71.255835 -y 73.979253 -U 0.000000 -V 0.000000 -T 0.000000
n -t 41.000000 -s 6 -x 75.920461 -y 65.120324 -U 0.000000 -V 0.000000 -T 0.000000
n -t 41.000000 -s 7 -x 35.354990 -y 63.362697 -U 0.000000 -V 0.000000 -T 0.000000
n -t 41.000000 -s 9 -x 74.217790 -y 46.592390 -U 0.000000 -V 0.000000 -T 0.000000
n -t 41.000000 -s 10 -x 40.399820 -y 95.496577 -U 0.000000 -V 0.000000 -T 0.000000
n -t 41.000000 -s 11 -x 33.453488 -y 51.531406 -U 0.000000 -V 0.000000 -T 0.000000
n -t 41.000000 -s 15 -x 73.245228 -y 43.915660 -U 0.000000 -V 0.000000 -T 0.000000
n -t 41.000000 -s 16 -x 18.772482 -y 54.201985 -U 0.000000 -V 0.000000 -T 0.000000
n -t 41.000000 -s 17 -x 73.164620 -y 81.958980 -U 0.000000 -V 0.000000 -T 0.000000
n -t 41.000000 -s 18 -x 29.458116 -y 34.633128 -U 0.000000 -V 0.000000 -T 0.000000
n -t 41.000000 -s 19 -x 9.674315 -y 70.028984 -U 0.000000 -V 0.000000 -T 0.000000
n -t 42.000000 -s 0 -x 76.890491 -y 88.773957 -U 0.000000 -V 0.000000 -T 0.000000
n -t 42.000000 -s 2 -x 61.949875 -y 55.204043 -U 0.000000 -V 0.000000 -T 0.000000
n -t 42.000000 -s 5 -x 71.255835 -y 73.979253 -U 0.000000 -V 0.000000 -T 0.000000
n -t 42.000000 -s 6 -x 75.920461 -y 65.120324 -U 0.000000 -V 0.000000 -T 0.000000
n -t 42.000000 -s 7 -x 35.354990 -y 63.362697 -U 0.000000 -V 0.000000 -T 0.000000
n -t 42.000000 -s 9 -x 74.217790 -y 46.592390 -U 0.000000 -V 0.000000 -T 0.000000
n -t 42.000000 -s 10 -x 40.399820 -y 95.496577 -U 0.000000 -V 0.000000 -T 0.000000
n -t 42.000000 -s 11 -x 33.453488 -y 51.531406 -U 0.000000 -V 0.000000 -T 0.000000
n -t 42.000000 -s 15 -x 73.245228 -y 43.915660 -U 0.000000 -V 0.000000 -T 0.000000
n -t 42.000000 -s 16 -x 18.772482 -y 54.201985 -U 0.000000 -V 0.000000 -T 0.000000
n -t 42.000000 -s 17 -x 73.164620 -y 81.958980 -U 0.000000 -V 0.000000 -T 0.000000
n -t 42.000000 -s 18 -x 29.458116 -y 34.633128 -U 0.000000 -V 0.000000 -T 0.000000
n -t 42.000000 -s 19 -x 9.674315 -y 70.028984 -U 0.000000 -V 0.000000 -T 0.000000
n -t 43.000000 -s 0 -x 76.890491 -y 88.773957 -U 0.000000 -V 0.000000 -T 0.000000
n -t 43.000000 -s 2 -x 61.949875 -y 55.204043 -U 0.000000 -V 0.000000 -T 0.000000
n -t 43.000000 -s 5 -x 71.255835 -y 73.979253 -U 0.000000 -V 0.000000 -T 0.000000
n -t 43.000000 -s 6 -x 75.920461 -y 65.120324 -U 0.000000 -V 0.000000 -T 0.000000
n -t 43.000000 -s 7 -x 35.354990 -y 63.362697 -U 0.000000 -V 0.000000 -T 0.000000
n -t 43.000000 -s 9 -x 74.217790 -y 46.592390 -U 0.000000 -V 0.000000 -T 0.000000
n -t 43.000000 -s 10 -x 40.399820 -y 95.496577 -U 0.000000 -V 0.000000 -T 0.000000
n -t 43.000000 -s 11 -x 33.453488 -y 51.531406 -U 0.000000 -V 0.000000 -T 0.000000
n -t 43.000000 -s 15 -x 73.245228 -y 43.915660 -U 0.000000 -V 0.000000 -T 0.000000
n -t 43.000000 -s 16 -x 18.772482 -y 54.201985 -U 0.000000 -V 0.000000 -T 0.000000
n -t 43.000000 -s 17 -x 73.164620 -y 81.958980 -U 0.000000 -V 0.000000 -T 0.000000
n -t 43.000000 -s 18 -x 29.458116 -y 34.633128 -U 0.000000 -V 0.000000 -T 0.000000
n -t 43.000000 -s 19 -x 9.674315 -y 70.028984 -U 0.000000 -V 0.000000 -T 0.000000
n -t 44.000000 -s 0 -x 76.890491 -y 88.773957 -U 0.000000 -V 0.000000 -T 0.000000
n -t 44.000000 -s 2 -x 61.949875 -y 55.204043 -U 0.000000 -V 0.000000 -T 0.000000
n -t 44.000000 -s 5 -x 71.255835 -y 73.979253 -U 0.000000 -V 0.000000 -T 0.000000
n -t 44.000000 -s 6 -x 75.920461 -y 65.120324 -U 0.000000 -V 0.000000 -T 0.000000
n -t 44.000000 -s 7 -x 35.354990 -y 63.362697 -U 0.000000 -V 0.000000 -T 0.000000
n -t 44.000000 -s 9 -x 74.217790 -y 46.592390 -U 0.000000 -V 0.000000 -T 0.000000
n -t 44.000000 -s 10 -x 40.399820 -y 95.496577 -U 0.000000 -V 0.000000 -T 0.000000
n -t 44.000000 -s 11 -x 33.453488 -y 51.531406 -U 0.000000 -V 0.000000 -T 0.000000
n -t 44.000000 -s 15 -x 73.245228 -y 43.915660 -U 0.000000 -V 0.000000 -T 0.000000
n -t 44.000000 -s 16 -x 18.772482 -y 54.201985 -U 0.000000 -V 0.000000 -T 0.000000
n -t 44.000000 -s 17 -x 73.164620 -y 81.958980 -U 0.000000 -V 0.000000 -T 0.000000
n -t 44.000000 -s 18 -x 29.458116 -y 34.633128 -U 0.000000 -V 0.000000 -T 0.000000
n -t 44.000000 -s 19 -x 9.674315 -y 70.028984 -U 0.000000 -V 0.000000 -T 0.000000
n -t 45.000000 -s 0 -x 76.890491 -y 88.773957 -U 0.000000 -V 0.000000 -T 0.000000
n -t 45.000000 -s 2 -x 61.949875 -y 55.204043 -U 0.000000 -V 0.000000 -T 0.000000
n -t 45.000000 -s 5 -x 71.255835 -y 73.979253 -U 0.000000 -V 0.000000 -T 0.000000
n -t 45.000000 -s 6 -x 75.920461 -y 65.120324 -U 0.000000 -V 0.000000 -T 0.000000
n -t 45.000000 -s 7 -x 35.354990 -y 63.362697 -U 0.000000 -V 0.000000 -T 0.000000
n -t 45.000000 -s 9 -x 74.217790 -y 46.592390 -U 0.000000 -V 0.000000 -T 0.000000
n -t 45.000000 -s 10 -x 40.399820 -y 95.496577 -U 0.000000 -V 0.000000 -T 0.000000
n -t 45.000000 -s 11 -x 33.453488 -y 51.531406 -U 0.000000 -V 0.000000 -T 0.000000
n -t 45.000000 -s 15 -x 73.245228 -y 43.915660 -U 0.000000 -V 0.000000 -T 0.000000
n -t 45.000000 -s 16 -x 18.772482 -y 54.201985 -U 0.000000 -V 0.000000 -T 0.000000
n -t 45.000000 -s 17 -x 73.164620 -y 81.958980 -U 0.000000 -V 0.000000 -T 0.000000
n -t 45.000000 -s 18 -x 29.458116 -y 34.633128 -U 0.000000 -V 0.000000 -T 0.000000
n -t 45.000000 -s 19 -x 9.674315 -y 70.028984 -U 0.000000 -V 0.000000 -T 0.000000
n -t 46.000000 -s 0 -x 76.890491 -y 88.773957 -U 0.000000 -V 0.000000 -T 0.000000
n -t 46.000000 -s 2 -x 61.949875 -y 55.204043 -U 0.000000 -V 0.000000 -T 0.000000
n -t 46.000000 -s 5 -x 71.255835 -y 73.979253 -U 0.000000 -V 0.000000 -T 0.000000
n -t 46.000000 -s 6 -x 75.920461 -y 65.120324 -U 0.000000 -V 0.000000 -T 0.000000
n -t 46.000000 -s 7 -x 35.354990 -y 63.362697 -U 0.000000 -V 0.000000 -T 0.000000
n -t 46.000000 -s 9 -x 74.217790 -y 46.592390 -U 0.000000 -V 0.000000 -T 0.000000
n -t 46.000000 -s 10 -x 40.399820 -y 95.496577 -U 0.000000 -V 0.000000 -T 0.000000
n -t 46.000000 -s 11 -x 33.453488 -y 51.531406 -U 0.000000 -V 0.000000 -T 0.000000
n -t 46.000000 -s 15 -x 73.245228 -y 43.915660 -U 0.000000 -V 0.000000 -T 0.000000
n -t 46.000000 -s 16 -x 18.772482 -y 54.201985 -U 0.000000 -V 0.000000 -T 0.000000
n -t 46.000000 -s 17 -x 73.164620 -y 81.958980 -U 0.000000 -V 0.000000 -T 0.000000
n -t 46.000000 -s 18 -x 29.458116 -y 34.633128 -U 0.000000 -V 0.000000 -T 0.000000
n -t 46.000000 -s 19 -x 9.674315 -y 70.028984 -U 0.000000 -V 0.000000 -T 0.000000
n -t 47.000000 -s 0 -x 76.890491 -y 88.773957 -U 0.000000 -V 0.000000 -T 0.000000
n -t 47.000000 -s 2 -x 61.949875 -y 55.204043 -U 0.000000 -V 0.000000 -T 0.000000
n -t 47.000000 -s 5 -x 71.255835 -y 73.979253 -U 0.000000 -V 0.000000 -T 0.000000
n -t 47.000000 -s 6 -x 75.920461 -y 65.120324 -U 0.000000 -V 0.000000 -T 0.000000
n -t 47.000000 -s 7 -x 35.354990 -y 63.362697 -U 0.000000 -V 0.000000 -T 0.000000
n -t 47.000000 -s 9 -x 74.217790 -y 46.592390 -U 0.000000 -V 0.000000 -T 0.000000
n -t 47.000000 -s 10 -x 40.399820 -y 95.496577 -U 0.000000 -V 0.000000 -T 0.000000
n -t 47.000000 -s 11 -x 33.453488 -y 51.531406 -U 0.000000 -V 0.000000 -T 0.000000
n -t 47.000000 -s 15 -x 73.245228 -y 43.915660 -U 0.000000 -V 0.000000 -T 0.000000
n -t 47.000000 -s 16 -x 18.772482 -y 54.201985 -U 0.000000 -V 0.000000 -T 0.000000