n -t * -s 0  -x 30.858609999999999 -y 15.73629 -Z 0 -z 1  -v circle -c black
n -t * -s 1  -x 50.48292 -y 7.6713180000000003 -Z 0 -z 1  -v circle -c black
n -t * -s 2  -x 34.70102 -y 53.504049999999999 -Z 0 -z 1  -v circle -c black
n -t * -s 3  -x 39.425669999999997 -y 21.40202 -Z 0 -z 1  -v circle -c black
n -t * -s 4  -x 65.509789999999995 -y 97.376710000000003 -Z 0 -z 1  -v circle -c black
n -t * -s 5  -x 89.278980000000004 -y 36.590679999999999 -Z 0 -z 1  -v circle -c black
n -t * -s 6  -x 87.741190000000003 -y 44.629919999999998 -Z 0 -z 1  -v circle -c black
n -t * -s 7  -x 71.249200000000002 -y 65.656989999999993 -Z 0 -z 1  -v circle -c black
n -t * -s 8  -x 44.282530000000001 -y 37.027819999999998 -Z 0 -z 1  -v circle -c black
n -t * -s 9  -x 11.23556 -y 6.7138229999999997 -Z 0 -z 1  -v circle -c black
n -t * -s 10  -x 56.293990000000001 -y 50.417760000000001 -Z 0 -z 2  -v circle -c black
V -t * -v 1.0a5 -a 0
W -t * -x 100 -y 100
A -t * -n 1 -p 0 -o 0x7fffffff -c 30 -a 1
A -t * -h 1 -m 1073741823 -s 0
n -t 0 -s 10 -S COLOR -c red -o black -i red -I black
n -t 0.000000 -s 10 -x 56.293990 -y 50.417760 -U -3.768791 -V 3.190701 -T 5.013470
n -t 0.000000 -s 2 -x 34.701020 -y 53.504050 -U 0.989939 -V -0.141492 -T 16.812417
n -t 0.000000 -s 3 -x 39.425670 -y 21.402020 -U 0.502592 -V 0.864524 -T 28.562678
n -t 0.000000 -s 5 -x 89.278980 -y 36.590680 -U -0.922248 -V 0.386600 -T 30.765873
n -t 0.000000 -s 6 -x 87.741190 -y 44.629920 -U -0.983481 -V 0.181009 -T 26.975389
n -t 0.000000 -s 7 -x 71.249200 -y 65.656990 -U -0.700424 -V -0.713727 -T 16.351638
n -t 0.000000 -s 8 -x 44.282530 -y 37.027820 -U 0.667751 -V 0.744385 -T 12.987931
n -t 1.000000 -s 2 -x 35.690959 -y 53.362558 -U 0.999893 -V 0.014606 -T 11.836035
n -t 1.000000 -s 3 -x 39.928262 -y 22.266544 -U 0.372926 -V 0.927861 -T 28.778670
n -t 1.000000 -s 5 -x 88.356732 -y 36.977280 -U -0.907056 -V 0.421010 -T 34.503101
n -t 1.000000 -s 6 -x 86.757709 -y 44.810929 -U -0.968528 -V 0.248905 -T 30.344891
n -t 1.000000 -s 7 -x 70.548776 -y 64.943263 -U -0.846516 -V -0.532363 -T 16.291479
n -t 1.000000 -s 8 -x 44.950281 -y 37.772205 -U 0.431504 -V 0.902111 -T 12.554668
n -t 2.000000 -s 2 -x 36.690853 -y 53.377163 -U 0.962055 -V 0.272855 -T 7.541439
n -t 2.000000 -s 3 -x 40.301187 -y 23.194405 -U 0.244003 -V 0.969775 -T 29.652134
n -t 2.000000 -s 6 -x 85.789181 -y 45.059835 -U -0.953251 -V 0.302179 -T 33.848914
n -t 2.000000 -s 7 -x 69.702260 -y 64.410900 -U -0.939865 -V -0.341547 -T 17.286033
n -t 2.000000 -s 8 -x 45.381786 -y 38.674315 -U 0.183042 -V 0.983105 -T 13.436326
n -t 3.000000 -s 2 -x 37.652908 -y 53.650019 -U 0.756551 -V 0.653934 -T 4.694924
n -t 3.000000 -s 3 -x 40.545190 -y 24.164180 -U 0.123059 -V 0.992399 -T 31.100064
n -t 3.000000 -s 7 -x 68.762395 -y 64.069353 -U -0.985596 -V -0.169117 -T 19.122238
n -t 3.000000 -s 8 -x 45.564828 -y 39.657421 -U -0.028377 -V 0.999597 -T 15.340633
n -t 3.000000 -s 3 -x 40.545190 -y 24.164180 -U 0.000000 -V 0.000000 -T 0.000000
n -t 3.000000 -s 7 -x 68.762395 -y 64.069353 -U 0.000000 -V 0.000000 -T 0.000000
n -t 3.000000 -s 8 -x 45.564828 -y 39.657421 -U 0.000000 -V 0.000000 -T 0.000000
n -t 4.000000 -s 3 -x 40.545190 -y 24.164180 -U 0.000000 -V 0.000000 -T 0.000000
n -t 4.000000 -s 7 -x 68.762395 -y 64.069353 -U 0.000000 -V 0.000000 -T 0.000000
n -t 4.000000 -s 8 -x 45.564828 -y 39.657421 -U 0.000000 -V 0.000000 -T 0.000000
n -t 6.000000 -s 2 -x 39.922562 -y 55.611821 -U -0.227463 -V 0.973787 -T 6.093207
n -t 6.000000 -s 3 -x 40.545190 -y 24.164180 -U -0.074254 -V 0.997239 -T 37.367020
n -t 6.000000 -s 4 -x 65.509790 -y 97.376710 -U -0.672186 -V -0.740382 -T 36.819563
n -t 6.000000 -s 7 -x 68.762395 -y 64.069353 -U -0.997217 -V 0.074558 -T 26.450661
n -t 6.000000 -s 8 -x 45.564828 -y 39.657421 -U -0.291887 -V 0.956453 -T 22.975055
n -t 7.000000 -s 2 -x 39.695099 -y 56.585608 -U -0.227463 -V 0.973787 -T 5.093207
n -t 7.000000 -s 3 -x 40.470936 -y 25.161419 -U -0.074254 -V 0.997239 -T 36.367020
n -t 7.000000 -s 4 -x 64.837604 -y 96.636328 -U -0.672186 -V -0.740382 -T 35.819563
n -t 7.000000 -s 7 -x 67.765178 -y 64.143910 -U -0.997217 -V 0.074558 -T 25.450661
n -t 7.000000 -s 8 -x 45.272940 -y 40.613873 -U -0.291887 -V 0.956453 -T 21.975055
n -t 8.000000 -s 10 -x 37.399270 -y 66.414240 -U 1.932849 -V -0.955594 -T 30.558858
n -t 8.000000 -s 2 -x 39.467636 -y 57.559395 -U -0.227463 -V 0.973787 -T 4.093207
n -t 8.000000 -s 3 -x 40.396682 -y 26.158658 -U -0.074254 -V 0.997239 -T 35.367020
n -t 8.000000 -s 4 -x 64.165418 -y 95.895945 -U -0.672186 -V -0.740382 -T 34.819563
n -t 8.000000 -s 7 -x 66.767962 -y 64.218468 -U -0.997217 -V 0.074558 -T 24.450661
n -t 8.000000 -s 8 -x 44.981053 -y 41.570326 -U -0.291887 -V 0.956453 -T 20.975055
n -t 8.000000 -s 3 -x 40.396682 -y 26.158658 -U 0.000000 -V 0.000000 -T 0.000000
n -t 8.000000 -s 4 -x 64.165418 -y 95.895945 -U 0.000000 -V 0.000000 -T 0.000000
n -t 8.000000 -s 7 -x 66.767962 -y 64.218468 -U 0.000000 -V 0.000000 -T 0.000000
n -t 8.000000 -s 8 -x 44.981053 -y 41.570326 -U 0.000000 -V 0.000000 -T 0.000000
n -t 9.000000 -s 3 -x 40.396682 -y 26.158658 -U 0.000000 -V 0.000000 -T 0.000000
n -t 9.000000 -s 4 -x 64.165418 -y 95.895945 -U 0.000000 -V 0.000000 -T 0.000000
n -t 9.000000 -s 7 -x 66.767962 -y 64.218468 -U 0.000000 -V 0.000000 -T 0.000000
n -t 9.000000 -s 8 -x 44.981053 -y 41.570326 -U 0.000000 -V 0.000000 -T 0.000000
n -t 10.000000 -s 3 -x 40.396682 -y 26.158658 -U 0.000000 -V 0.000000 -T 0.000000
n -t 10.000000 -s 4 -x 64.165418 -y 95.895945 -U 0.000000 -V 0.000000 -T 0.000000
n -t 10.000000 -s 7 -x 66.767962 -y 64.218468 -U 0.000000 -V 0.000000 -T 0.000000
n -t 10.000000 -s 8 -x 44.981053 -y 41.570326 -U 0.000000 -V 0.000000 -T 0.000000
n -t 11.000000 -s 3 -x 40.396682 -y 26.158658 -U 0.000000 -V 0.000000 -T 0.000000
n -t 11.000000 -s 4 -x 64.165418 -y 95.895945 -U 0.000000 -V 0.000000 -T 0.000000
n -t 11.000000 -s 7 -x 66.767962 -y 64.218468 -U 0.000000 -V 0.000000 -T 0.000000
n -t 11.000000 -s 8 -x 44.981053 -y 41.570326 -U 0.000000 -V 0.000000 -T 0.000000
n -t 12.000000 -s 3 -x 40.396682 -y 26.158658 -U 0.000000 -V 0.000000 -T 0.000000
n -t 12.000000 -s 4 -x 64.165418 -y 95.895945 -U 0.000000 -V 0.000000 -T 0.000000
n -t 12.000000 -s 7 -x 66.767962 -y 64.218468 -U 0.000000 -V 0.000000 -T 0.000000
n -t 12.000000 -s 8 -x 44.981053 -y 41.570326 -U 0.000000 -V 0.000000 -T 0.000000
n -t 13.000000 -s 3 -x 40.396682 -y 26.158658 -U 0.000000 -V 0.000000 -T 0.000000
n -t 13.000000 -s 4 -x 64.165418 -y 95.895945 -U 0.000000 -V 0.000000 -T 0.000000
n -t 13.000000 -s 7 -x 66.767962 -y 64.218468 -U 0.000000 -V 0.000000 -T 0.000000
n -t 13.000000 -s 8 -x 44.981053 -y 41.570326 -U 0.000000 -V 0.000000 -T 0.000000
n -t 15.000000 -s 2 -x 38.536584 -y 61.545306 -U 0.989385 -V -0.145320 -T 7.525593
n -t 15.000000 -s 3 -x 40.396682 -y 26.158658 -U 0.299389 -V 0.954131 -T 30.180096
n -t 15.000000 -s 4 -x 64.165418 -y 95.895945 -U -0.343649 -V -0.939098 -T 33.516597
n -t 15.000000 -s 5 -x 75.657945 -y 42.871413 -U -0.826334 -V 0.563181 -T 24.925849
n -t 15.000000 -s 6 -x 73.396915 -y 48.988162 -U -0.902267 -V 0.431178 -T 19.901388
n -t 15.000000 -s 7 -x 66.767962 -y 64.218468 -U -0.962035 -V -0.272925 -T 11.463792
n -t 15.000000 -s 8 -x 44.981053 -y 41.570326 -U 0.311351 -V 0.950295 -T 14.104341
n -t 16.000000 -s 2 -x 39.525969 -y 61.399986 -U 0.981097 -V -0.193518 -T 8.593046
n -t 16.000000 -s 3 -x 40.696071 -y 27.112790 -U 0.358731 -V 0.933441 -T 28.913981
n -t 16.000000 -s 4 -x 63.821769 -y 94.956847 -U -0.289858 -V -0.957070 -T 32.810579
n -t 16.000000 -s 5 -x 74.831612 -y 43.434594 -U -0.819999 -V 0.572365 -T 21.792166
n -t 16.000000 -s 6 -x 72.494648 -y 49.419339 -U -0.902837 -V 0.429982 -T 16.745431
n -t 16.000000 -s 7 -x 65.805926 -y 63.945543 -U -0.928514 -V -0.371298 -T 8.940413
n -t 16.000000 -s 8 -x 45.292405 -y 42.520621 -U 0.422283 -V 0.906464 -T 12.925554
n -t 17.000000 -s 2 -x 40.507065 -y 61.206468 -U 0.972949 -V -0.231021 -T 9.685098
n -t 17.000000 -s 3 -x 41.054802 -y 28.046231 -U 0.419088 -V 0.907946 -T 27.785738
n -t 17.000000 -s 4 -x 63.531911 -y 93.999778 -U -0.234703 -V -0.972067 -T 32.225705
n -t 17.000000 -s 5 -x 74.011613 -y 44.006959 -U -0.812117 -V 0.583495 -T 18.662484
n -t 17.000000 -s 6 -x 71.591811 -y 49.849322 -U -0.903568 -V 0.428444 -T 13.589521
n -t 17.000000 -s 7 -x 64.877413 -y 63.574244 -U -0.868283 -V -0.496069 -T 6.611995
n -t 17.000000 -s 8 -x 45.714688 -y 43.427085 -U 0.533733 -V 0.845653 -T 12.012667
n -t 18.000000 -s 2 -x 41.480014 -y 60.975447 -U 0.965425 -V -0.260681 -T 10.793817
n -t 18.000000 -s 3 -x 41.473890 -y 28.954176 -U 0.479662 -V 0.877453 -T 26.801272
n -t 18.000000 -s 4 -x 63.297207 -y 93.027710 -U -0.178706 -V -0.983902 -T 31.761170
n -t 18.000000 -s 5 -x 73.199496 -y 44.590454 -U -0.802004 -V 0.597318 -T 15.538213
n -t 18.000000 -s 6 -x 70.688243 -y 50.277766 -U -0.904546 -V 0.426375 -T 10.433682
n -t 18.000000 -s 7 -x 64.009129 -y 63.078176 -U -0.760355 -V -0.649508 -T 4.576280
n -t 18.000000 -s 8 -x 46.248421 -y 44.272738 -U 0.639873 -V 0.768480 -T 11.377211
n -t 18.000000 -s 2 -x 41.480014 -y 60.975447 -U 0.000000 -V 0.000000 -T 0.000000
n -t 18.000000 -s 3 -x 41.473890 -y 28.954176 -U 0.000000 -V 0.000000 -T 0.000000
n -t 18.000000 -s 4 -x 63.297207 -y 93.027710 -U 0.000000 -V 0.000000 -T 0.000000
n -t 18.000000 -s 5 -x 73.199496 -y 44.590454 -U 0.000000 -V 0.000000 -T 0.000000
n -t 18.000000 -s 6 -x 70.688243 -y 50.277766 -U 0.000000 -V 0.000000 -T 0.000000
n -t 18.000000 -s 8 -x 46.248421 -y 44.272738 -U 0.000000 -V 0.000000 -T 0.000000
n -t 19.000000 -s 2 -x 41.480014 -y 60.975447 -U 0.000000 -V 0.000000 -T 0.000000
n -t 19.000000 -s 3 -x 41.473890 -y 28.954176 -U 0.000000 -V 0.000000 -T 0.000000
n -t 19.000000 -s 4 -x 63.297207 -y 93.027710 -U 0.000000 -V 0.000000 -T 0.000000
n -t 19.000000 -s 5 -x 73.199496 -y 44.590454 -U 0.000000 -V 0.000000 -T 0.000000
n -t 19.000000 -s 6 -x 70.688243 -y 50.277766 -U 0.000000 -V 0.000000 -T 0.000000
n -t 19.000000 -s 8 -x 46.248421 -y 44.272738 -U 0.000000 -V 0.000000 -T 0.000000
n -t 20.000000 -s 2 -x 41.480014 -y 60.975447 -U 0.000000 -V 0.000000 -T 0.000000
n -t 20.000000 -s 3 -x 41.473890 -y 28.954176 -U 0.000000 -V 0.000000 -T 0.000000
n -t 20.000000 -s 4 -x 63.297207 -y 93.027710 -U 0.000000 -V 0.000000 -T 0.000000
n -t 20.000000 -s 5 -x 73.199496 -y 44.590454 -U 0.000000 -V 0.000000 -T 0.000000
n -t 20.000000 -s 6 -x 70.688243 -y 50.277766 -U 0.000000 -V 0.000000 -T 0.000000
n -t 20.000000 -s 8 -x 46.248421 -y 44.272738 -U 0.000000 -V 0.000000 -T 0.000000
n -t 21.000000 -s 2 -x 41.480014 -y 60.975447 -U 0.000000 -V 0.000000 -T 0.000000
n -t 21.000000 -s 3 -x 41.473890 -y 28.954176 -U 0.000000 -V 0.000000 -T 0.000000
n -t 21.000000 -s 4 -x 63.297207 -y 93.027710 -U 0.000000 -V 0.000000 -T 0.000000
n -t 21.000000 -s 5 -x 73.199496 -y 44.590454 -U 0.000000 -V 0.000000 -T 0.000000
n -t 21.000000 -s 6 -x 70.688243 -y 50.277766 -U 0.000000 -V 0.000000 -T 0.000000
n -t 21.000000 -s 8 -x 46.248421 -y 44.272738 -U 0.000000 -V 0.000000 -T 0.000000
n -t 22.000000 -s 2 -x 41.480014 -y 60.975447 -U 0.000000 -V 0.000000 -T 0.000000
n -t 22.000000 -s 3 -x 41.473890 -y 28.954176 -U 0.000000 -V 0.000000 -T 0.000000
n -t 22.000000 -s 4 -x 63.297207 -y 93.027710 -U 0.000000 -V 0.000000 -T 0.000000
n -t 22.000000 -s 5 -x 73.199496 -y 44.590454 -U 0.000000 -V 0.000000 -T 0.000000
n -t 22.000000 -s 7 -x 60.967711 -y 60.480143 -U 0.000000 -V 0.000000 -T 0.000000
n -t 22.000000 -s 8 -x 46.248421 -y 44.272738 -U 0.000000 -V 0.000000 -T 0.000000
n -t 23.000000 -s 2 -x 41.480014 -y 60.975447 -U 0.000000 -V 0.000000 -T 0.000000
n -t 23.000000 -s 3 -x 41.473890 -y 28.954176 -U 0.000000 -V 0.000000 -T 0.000000
n -t 23.000000 -s 4 -x 63.297207 -y 93.027710 -U 0.000000 -V 0.000000 -T 0.000000
n -t 23.000000 -s 5 -x 73.199496 -y 44.590454 -U 0.000000 -V 0.000000 -T 0.000000
n -t 23.000000 -s 7 -x 60.967711 -y 60.480143 -U 0.000000 -V 0.000000 -T 0.000000
n -t 23.000000 -s 8 -x 46.248421 -y 44.272738 -U 0.000000 -V 0.000000 -T 0.000000
n -t 24.000000 -s 2 -x 41.480014 -y 60.975447 -U 0.000000 -V 0.000000 -T 0.000000
n -t 24.000000 -s 3 -x 41.473890 -y 28.954176 -U 0.000000 -V 0.000000 -T 0.000000
n -t 24.000000 -s 4 -x 63.297207 -y 93.027710 -U 0.000000 -V 0.000000 -T 0.000000
n -t 24.000000 -s 5 -x 73.199496 -y 44.590454 -U 0.000000 -V 0.000000 -T 0.000000
n -t 24.000000 -s 7 -x 60.967711 -y 60.480143 -U 0.000000 -V 0.000000 -T 0.000000
n -t 24.000000 -s 8 -x 46.248421 -y 44.272738 -U 0.000000 -V 0.000000 -T 0.000000
n -t 25.000000 -s 2 -x 41.480014 -y 60.975447 -U 0.000000 -V 0.000000 -T 0.000000
n -t 25.000000 -s 3 -x 41.473890 -y 28.954176 -U 0.000000 -V 0.000000 -T 0.000000
n -t 25.000000 -s 4 -x 63.297207 -y 93.027710 -U 0.000000 -V 0.000000 -T 0.000000
n -t 25.000000 -s 5 -x 73.199496 -y 44.590454 -U 0.000000 -V 0.000000 -T 0.000000
n -t 25.000000 -s 7 -x 60.967711 -y 60.480143 -U 0.000000 -V 0.000000 -T 0.000000
n -t 25.000000 -s 8 -x 46.248421 -y 44.272738 -U 0.000000 -V 0.000000 -T 0.000000
n -t 26.000000 -s 2 -x 41.480014 -y 60.975447 -U 0.000000 -V 0.000000 -T 0.000000
n -t 26.000000 -s 3 -x 41.473890 -y 28.954176 -U 0.000000 -V 0.000000 -T 0.000000
n -t 26.000000 -s 4 -x 63.297207 -y 93.027710 -U 0.000000 -V 0.000000 -T 0.000000
n -t 26.000000 -s 5 -x 73.199496 -y 44.590454 -U 0.000000 -V 0.000000 -T 0.000000
n -t 26.000000 -s 7 -x 60.967711 -y 60.480143 -U 0.000000 -V 0.000000 -T 0.000000
n -t 26.000000 -s 8 -x 46.248421 -y 44.272738 -U 0.000000 -V 0.000000 -T 0.000000
n -t 27.000000 -s 2 -x 41.480014 -y 60.975447 -U 0.000000 -V 0.000000 -T 0.000000
n -t 27.000000 -s 3 -x 41.473890 -y 28.954176 -U 0.000000 -V 0.000000 -T 0.000000
n -t 27.000000 -s 4 -x 63.297207 -y 93.027710 -U 0.000000 -V 0.000000 -T 0.000000
n -t 27.000000 -s 6 -x 70.688243 -y 50.277766 -U 0.000000 -V 0.000000 -T 0.000000
n -t 27.000000 -s 7 -x 60.967711 -y 60.480143 -U 0.000000 -V 0.000000 -T 0.000000
n -t 27.000000 -s 8 -x 46.248421 -y 44.272738 -U 0.000000 -V 0.000000 -T 0.000000
n -t 28.000000 -s 2 -x 41.480014 -y 60.975447 -U 0.000000 -V 0.000000 -T 0.000000
n -t 28.000000 -s 3 -x 41.473890 -y 28.954176 -U 0.000000 -V 0.000000 -T 0.000000
n -t 28.000000 -s 4 -x 63.297207 -y 93.027710 -U 0.000000 -V 0.000000 -T 0.000000
n -t 28.000000 -s 6 -x 70.688243 -y 50.277766 -U 0.000000 -V 0.000000 -T 0.000000
n -t 28.000000 -s 7 -x 60.967711 -y 60.480143 -U 0.000000 -V 0.000000 -T 0.000000
n -t 28.000000 -s 8 -x 46.248421 -y 44.272738 -U 0.000000 -V 0.000000 -T 0.000000
n -t 29.000000 -s 2 -x 41.480014 -y 60.975447 -U 0.000000 -V 0.000000 -T 0.000000
n -t 29.000000 -s 3 -x 41.473890 -y 28.954176 -U 0.000000 -V 0.000000 -T 0.000000
n -t 29.000000 -s 4 -x 63.297207 -y 93.027710 -U 0.000000 -V 0.000000 -T 0.000000
n -t 29.000000 -s 6 -x 70.688243 -y 50.277766 -U 0.000000 -V 0.000000 -T 0.000000
n -t 29.000000 -s 7 -x 60.967711 -y 60.480143 -U 0.000000 -V 0.000000 -T 0.000000
n -t 29.000000 -s 8 -x 46.248421 -y 44.272738 -U 0.000000 -V 0.000000 -T 0.000000
n -t 30.000000 -s 2 -x 41.480014 -y 60.975447 -U 0.000000 -V 0.000000 -T 0.000000
n -t 30.000000 -s 3 -x 41.473890 -y 28.954176 -U 0.000000 -V 0.000000 -T 0.000000
n -t 30.000000 -s 4 -x 63.297207 -y 93.027710 -U 0.000000 -V 0.000000 -T 0.000000
n -t 30.000000 -s 6 -x 70.688243 -y 50.277766 -U 0.000000 -V 0.000000 -T 0.000000
n -t 30.000000 -s 7 -x 60.967711 -y 60.480143 -U 0.000000 -V 0.000000 -T 0.000000
n -t 30.000000 -s 8 -x 46.248421 -y 44.272738 -U 0.000000 -V 0.000000 -T 0.000000
n -t 31.000000 -s 2 -x 41.480014 -y 60.975447 -U 0.000000 -V 0.000000 -T 0.000000
n -t 31.000000 -s 3 -x 41.473890 -y 28.954176 -U 0.000000 -V 0.000000 -T 0.000000
n -t 31.000000 -s 4 -x 63.297207 -y 93.027710 -U 0.000000 -V 0.000000 -T 0.000000
n -t 31.000000 -s 6 -x 70.688243 -y 50.277766 -U 0.000000 -V 0.000000 -T 0.000000
n -t 31.000000 -s 7 -x 60.967711 -y 60.480143 -U 0.000000 -V 0.000000 -T 0.000000
n -t 31.000000 -s 8 -x 46.248421 -y 44.272738 -U 0.000000 -V 0.000000 -T 0.000000
n -t 33.000000 -s 5 -x 73.199496 -y 44.590454 -U 0.986658 -V -0.162806 -T 7.690313
n -t 33.000000 -s 6 -x 70.688243 -y 50.277766 -U 0.888746 -V -0.458399 -T 11.913999
n -t 33.000000 -s 7 -x 60.967711 -y 60.480143 -U 0.809455 -V -0.587181 -T 25.579555
n -t 33.000000 -s 8 -x 46.248421 -y 44.272738 -U 0.999021 -V -0.044250 -T 34.510777
n -t 34.000000 -s 5 -x 74.186154 -y 44.427648 -U 0.978202 -V -0.207655 -T 8.767289
n -t 34.000000 -s 6 -x 71.576989 -y 49.819367 -U 0.889676 -V -0.456592 -T 13.069893
n -t 34.000000 -s 7 -x 61.777166 -y 59.892962 -U 0.816096 -V -0.577916 -T 26.707276
n -t 34.000000 -s 8 -x 47.247441 -y 44.228488 -U 0.997841 -V -0.065682 -T 35.493346
n -t 35.000000 -s 5 -x 75.164356 -y 44.219993 -U 0.970122 -V -0.242619 -T 9.866012
n -t 35.000000 -s 6 -x 72.466665 -y 49.362775 -U 0.890444 -V -0.455094 -T 14.225846
n -t 35.000000 -s 7 -x 62.593262 -y 59.315045 -U 0.821987 -V -0.569507 -T 27.838651
n -t 35.000000 -s 8 -x 48.245282 -y 44.162806 -U 0.996334 -V -0.085547 -T 36.493020
n -t 36.000000 -s 5 -x 76.134478 -y 43.977374 -U 0.962768 -V -0.270331 -T 10.979524
n -t 36.000000 -s 6 -x 73.357109 -y 48.907681 -U 0.891084 -V -0.453838 -T 15.381844
n -t 36.000000 -s 7 -x 63.415249 -y 58.745539 -U 0.827237 -V -0.561854 -T 28.973107
n -t 37.000000 -s 5 -x 77.097245 -y 43.707043 -U 0.956225 -V -0.292634 -T 12.103354
n -t 37.000000 -s 6 -x 74.248193 -y 48.453843 -U 0.891625 -V -0.452775 -T 16.537875
n -t 37.000000 -s 7 -x 64.242486 -y 58.183685 -U 0.831936 -V -0.554872 -T 30.110178
n -t 38.000000 -s 5 -x 78.053470 -y 43.414410 -U 0.950463 -V -0.310837 -T 13.234555
n -t 38.000000 -s 6 -x 75.139818 -y 48.001068 -U 0.892085 -V -0.451867 -T 17.693932
n -t 38.000000 -s 7 -x 65.074421 -y 57.628813 -U 0.836159 -V -0.548487 -T 31.249478
n -t 39.000000 -s 5 -x 79.003933 -y 43.103572 -U 0.947524 -V -0.319686 -T 13.428034
n -t 39.000000 -s 6 -x 76.031903 -y 47.549201 -U 0.892316 -V -0.451411 -T 17.898870
n -t 39.000000 -s 7 -x 65.910580 -y 57.080325 -U 0.838348 -V -0.545135 -T 31.445893
n -t 40.000000 -s 5 -x 79.951457 -y 42.783886 -U 0.947524 -V -0.319686 -T 12.428034
n -t 40.000000 -s 6 -x 76.924219 -y 47.097789 -U 0.892316 -V -0.451411 -T 16.898870
n -t 40.000000 -s 7 -x 66.748928 -y 56.535190 -U 0.838348 -V -0.545135 -T 30.445893
n -t 41.000000 -s 5 -x 80.898980 -y 42.464201 -U 0.947524 -V -0.319686 -T 11.428034
n -t 41.000000 -s 6 -x 77.816535 -y 46.646378 -U 0.892316 -V -0.451411 -T 15.898870
n -t 41.000000 -s 7 -x 67.587276 -y 55.990055 -U 0.838348 -V -0.545135 -T 29.445893
n -t 42.000000 -s 5 -x 81.846504 -y 42.144515 -U 0.947524 -V -0.319686 -T 10.428034
n -t 42.000000 -s 6 -x 78.708851 -y 46.194967 -U 0.892316 -V -0.451411 -T 14.898870
n -t 42.000000 -s 7 -x 68.425625 -y 55.444920 -U 0.838348 -V -0.545135 -T 28.445893
n -t 42.000000 -s 8 -x 55.219621 -y 43.563979 -U 0.988350 -V -0.152201 -T 36.731501
n -t 43.000000 -s 5 -x 82.794027 -y 41.824829 -U 0.947524 -V -0.319686 -T 9.428034
n -t 43.000000 -s 6 -x 79.601167 -y 45.743555 -U 0.892316 -V -0.451411 -T 13.898870
n -t 43.000000 -s 7 -x 69.263973 -y 54.899785 -U 0.838348 -V -0.545135 -T 27.445893
n -t 43.000000 -s 8 -x 56.207970 -y 43.411778 -U 0.988350 -V -0.152201 -T 35.731501
n -t 44.000000 -s 5 -x 83.741551 -y 41.505143 -U 0.947524 -V -0.319686 -T 8.428034
n -t 44.000000 -s 6 -x 80.493483 -y 45.292144 -U 0.892316 -V -0.451411 -T 12.898870
n -t 44.000000 -s 7 -x 70.102321 -y 54.354650 -U 0.838348 -V -0.545135 -T 26.445893
n -t 44.000000 -s 8 -x 57.196320 -y 43.259576 -U 0.988350 -V -0.152201 -T 34.731501
n -t 45.000000 -s 5 -x 84.689075 -y 41.185457 -U 0.947524 -V -0.319686 -T 7.428034
n -t 45.000000 -s 6 -x 81.385799 -y 44.840732 -U 0.892316 -V -0.451411 -T 11.898870
n -t 45.000000 -s 7 -x 70.940669 -y 53.809515 -U 0.838348 -V -0.545135 -T 25.445893
n -t 45.000000 -s 8 -x 58.184670 -y 43.107375 -U 0.988350 -V -0.152201 -T 33.731501
n -t 46.000000 -s 5 -x 85.636598 -y 40.865771 -U 0.947524 -V -0.319686 -T 6.428034
n -t 46.000000 -s 6 -x 82.278115 -y 44.389321 -U 0.892316 -V -0.451411 -T 10.898870
n -t 46.000000 -s 7 -x 71.779018 -y 53.264380 -U 0.838348 -V -0.545135 -T 24.445893
n -t 46.000000 -s 8 -x 59.173019 -y 42.955174 -U 0.988350 -V -0.152201 -T 32.731501
n -t 47.000000 -s 5 -x 86.584122 -y 40.546085 -U 0.947524 -V -0.319686 -T 5.428034
n -t 47.000000 -s 6 -x 83.170431 -y 43.937910 -U 0.892316 -V -0.451411 -T 9.898870
n -t 47.000000 -s 7 -x 72.617366 -y 52.719244 -U 0.838348 -V -0.545135 -T 23.445893
n -t 47.000000 -s 8 -x 60.161369 -y 42.802972 -U 0.988350 -V -0.152201 -T 31.731501
n -t 48.000000 -s 5 -x 87.531645 -y 40.226399 -U 0.947524 -V -0.319686 -T 4.428034
n -t 48.000000 -s 6 -x 84.062747 -y 43.486498 -U 0.892316 -V -0.451411 -T 8.898870
n -t 48.000000 -s 7 -x 73.455714 -y 52.174109 -U 0.838348 -V -0.545135 -T 22.445893
n -t 48.000000 -s 8 -x 61.149718 -y 42.650771 -U 0.988350 -V -0.152201 -T 30.731501
n -t 48.000000 -s 6 -x 84.062747 -y 43.486498 -U 0.000000 -V 0.000000 -T 0.000000
n -t 48.000000 -s 7 -x 73.455714 -y 52.174109 -U 0.000000 -V 0.000000 -T 0.000000
n -t 48.000000 -s 8 -x 61.149718 -y 42.650771 -U 0.000000 -V 0.000000 -T 0.000000
n -t 49.000000 -s 10 -x 96.464930 -y 37.212390 -U -0.438693 -V 2.157468 -T 15.037093
n -t 49.000000 -s 6 -x 84.062747 -y 43.486498 -U 0.000000 -V 0.000000 -T 0.000000
n -t 49.000000 -s 7 -x 73.455714 -y 52.174109 -U 0.000000 -V 0.000000 -T 0.000000
n -t 49.000000 -s 8 -x 61.149718 -y 42.650771 -U 0.000000 -V 0.000000 -T 0.000000
n -t 50.000000 -s 6 -x 84.062747 -y 43.486498 -U 0.000000 -V 0.000000 -T 0.000000
n -t 50.000000 -s 7 -x 73.455714 -y 52.174109 -U 0.000000 -V 0.000000 -T 0.000000
n -t 50.000000 -s 8 -x 61.149718 -y 42.650771 -U 0.000000 -V 0.000000 -T 0.000000
n -t 51.000000 -s 6 -x 84.062747 -y 43.486498 -U 0.000000 -V 0.000000 -T 0.000000
n -t 51.000000 -s 7 -x 73.455714 -y 52.174109 -U 0.000000 -V 0.000000 -T 0.000000
n -t 51.000000 -s 8 -x 61.149718 -y 42.650771 -U 0.000000 -V 0.000000 -T 0.000000
n -t 52.000000 -s 6 -x 84.062747 -y 43.486498 -U 0.000000 -V 0.000000 -T 0.000000
n -t 52.000000 -s 7 -x 73.455714 -y 52.174109 -U 0.000000 -V 0.000000 -T 0.000000
n -t 52.000000 -s 8 -x 61.149718 -y 42.650771 -U 0.000000 -V 0.000000 -T 0.000000
n -t 53.000000 -s 6 -x 84.062747 -y 43.486498 -U 0.000000 -V 0.000000 -T 0.000000
n -t 53.000000 -s 7 -x 73.455714 -y 52.174109 -U 0.000000 -V 0.000000 -T 0.000000
n -t 53.000000 -s 8 -x 61.149718 -y 42.650771 -U 0.000000 -V 0.000000 -T 0.000000
n -t 54.000000 -s 6 -x 84.062747 -y 43.486498 -U 0.000000 -V 0.000000 -T 0.000000
n -t 54.000000 -s 7 -x 73.455714 -y 52.174109 -U 0.000000 -V 0.000000 -T 0.000000
n -t 54.000000 -s 8 -x 61.149718 -y 42.650771 -U 0.000000 -V 0.000000 -T 0.000000
n -t 56.000000 -s 5 -x 91.727312 -y 38.810819 -U 0.122500 -V 0.992469 -T 8.606319
n -t 56.000000 -s 6 -x 84.062747 -y 43.486498 -U 0.726421 -V 0.687250 -T 7.845634
n -t 56.000000 -s 7 -x 73.455714 -y 52.174109 -U 0.999975 -V 0.007049 -T 14.938864
n -t 56.000000 -s 8 -x 61.149718 -y 42.650771 -U 0.957903 -V 0.287091 -T 28.661400
n -t 57.000000 -s 5 -x 91.849812 -y 39.803288 -U 0.075156 -V 0.997172 -T 9.710447
n -t 57.000000 -s 6 -x 84.789167 -y 44.173748 -U 0.621327 -V 0.783552 -T 8.143206
n -t 57.000000 -s 7 -x 74.455689 -y 52.181159 -U 0.992419 -V 0.122900 -T 13.641016
n -t 57.000000 -s 8 -x 62.107621 -y 42.937862 -U 0.936665 -V 0.350228 -T 27.933633
n -t 58.000000 -s 5 -x 91.924968 -y 40.800460 -U 0.037356 -V 0.999302 -T 10.840195
n -t 58.000000 -s 6 -x 85.410494 -y 44.957300 -U 0.520018 -V 0.854155 -T 8.665309
n -t 58.000000 -s 7 -x 75.448108 -y 52.304058 -U 0.969357 -V 0.245656 -T 12.608152
n -t 58.000000 -s 8 -x 63.044286 -y 43.288090 -U 0.911006 -V 0.412392 -T 27.351490
n -t 59.000000 -s 5 -x 91.962324 -y 41.799762 -U 0.006810 -V 0.999977 -T 11.987698
n -t 59.000000 -s 6 -x 85.930512 -y 45.811456 -U 0.428152 -V 0.903707 -T 9.358208
n -t 59.000000 -s 7 -x 76.417465 -y 52.549714 -U 0.929025 -V 0.370016 -T 11.856959
n -t 59.000000 -s 8 -x 63.955292 -y 43.700482 -U 0.881208 -V 0.472729 -T 26.913821
n -t 60.000000 -s 5 -x 91.969134 -y 42.799739 -U -0.018174 -V 0.999835 -T 13.147792
n -t 60.000000 -s 6 -x 86.358663 -y 46.715162 -U 0.347923 -V 0.937523 -T 10.177623
n -t 60.000000 -s 7 -x 77.346491 -y 52.919730 -U 0.871964 -V 0.489570 -T 11.391529
n -t 60.000000 -s 8 -x 64.836500 -y 44.173211 -U 0.847720 -V 0.530444 -T 26.617527
n -t 61.000000 -s 4 -x 63.297207 -y 93.027710 -U 0.681962 -V -0.731387 -T 35.916360
n -t 61.000000 -s 5 -x 91.950960 -y 43.799573 -U -0.038843 -V 0.999245 -T 14.317006
n -t 61.000000 -s 6 -x 86.706587 -y 47.652685 -U 0.279312 -V 0.960201 -T 11.089676
n -t 61.000000 -s 7 -x 78.218455 -y 53.409300 -U 0.801299 -V 0.598263 -T 11.201391
n -t 61.000000 -s 8 -x 65.684220 -y 44.703655 -U 0.811134 -V 0.584860 -T 26.457682
n -t 62.000000 -s 4 -x 63.979170 -y 92.296323 -U 0.703760 -V -0.710437 -T 33.056637
n -t 62.000000 -s 5 -x 91.912116 -y 44.798819 -U -0.056126 -V 0.998424 -T 15.492953
n -t 62.000000 -s 6 -x 86.985898 -y 48.612886 -U 0.221215 -V 0.975225 -T 12.069479
n -t 62.000000 -s 7 -x 79.019754 -y 54.007564 -U 0.722019 -V 0.691873 -T 11.262964
n -t 62.000000 -s 8 -x 66.495354 -y 45.288515 -U 0.772138 -V 0.635455 -T 26.427783
n -t 63.000000 -s 4 -x 64.682930 -y 91.585886 -U 0.727677 -V -0.685920 -T 30.235825
n -t 63.000000 -s 5 -x 91.855990 -y 45.797242 -U -0.070719 -V 0.997496 -T 16.673959
n -t 63.000000 -s 6 -x 87.207114 -y 49.588111 -U 0.172170 -V 0.985067 -T 13.099094
n -t 63.000000 -s 7 -x 79.741773 -y 54.699437 -U 0.639597 -V 0.768710 -T 11.543945
n -t 63.000000 -s 8 -x 67.267492 -y 45.923970 -U 0.731462 -V 0.681882 -T 26.520070
n -t 64.000000 -s 4 -x 65.410607 -y 90.899966 -U 0.753936 -V -0.656948 -T 27.461564
n -t 64.000000 -s 5 -x 91.785271 -y 46.794739 -U -0.083151 -V 0.996537 -T 17.858825
n -t 64.000000 -s 6 -x 87.379284 -y 50.573178 -U 0.130716 -V 0.991420 -T 14.165669
n -t 64.000000 -s 7 -x 80.381371 -y 55.468147 -U 0.558723 -V 0.829354 -T 12.008726
n -t 64.000000 -s 8 -x 67.998954 -y 46.605852 -U 0.689833 -V 0.723968 -T 26.725909
n -t 65.000000 -s 4 -x 66.164543 -y 90.243018 -U 0.754974 -V -0.655755 -T 26.396761
n -t 65.000000 -s 5 -x 91.702120 -y 47.791276 -U -0.083585 -V 0.996501 -T 16.939930
n -t 65.000000 -s 6 -x 87.510000 -y 51.564598 -U 0.129271 -V 0.991609 -T 13.242902
n -t 65.000000 -s 7 -x 80.940094 -y 56.297501 -U 0.555715 -V 0.831373 -T 11.066110
n -t 65.000000 -s 8 -x 68.688788 -y 47.329821 -U 0.688256 -V 0.725468 -T 25.772693
n -t 66.000000 -s 4 -x 66.919517 -y 89.587263 -U 0.754974 -V -0.655755 -T 25.396761
n -t 66.000000 -s 5 -x 91.618535 -y 48.787776 -U -0.083585 -V 0.996501 -T 15.939930
n -t 66.000000 -s 6 -x 87.639270 -y 52.556207 -U 0.129271 -V 0.991609 -T 12.242902
n -t 66.000000 -s 7 -x 81.495809 -y 57.128874 -U 0.555715 -V 0.831373 -T 10.066110
n -t 66.000000 -s 8 -x 69.377043 -y 48.055289 -U 0.688256 -V 0.725468 -T 24.772693
n -t 67.000000 -s 4 -x 67.674490 -y 88.931508 -U 0.754974 -V -0.655755 -T 24.396761
n -t 67.000000 -s 5 -x 91.534950 -y 49.784277 -U -0.083585 -V 0.996501 -T 14.939930
n -t 67.000000 -s 6 -x 87.768541 -y 53.547817 -U 0.129271 -V 0.991609 -T 11.242902
n -t 67.000000 -s 7 -x 82.051524 -y 57.960247 -U 0.555715 -V 0.831373 -T 9.066110
n -t 67.000000 -s 8 -x 70.065299 -y 48.780757 -U 0.688256 -V 0.725468 -T 23.772693
n -t 68.000000 -s 4 -x 68.429464 -y 88.275752 -U 0.754974 -V -0.655755 -T 23.396761
n -t 68.000000 -s 5 -x 91.451365 -y 50.780778 -U -0.083585 -V 0.996501 -T 13.939930
n -t 68.000000 -s 6 -x 87.897811 -y 54.539426 -U 0.129271 -V 0.991609 -T 10.242902
n -t 68.000000 -s 7 -x 82.607238 -y 58.791620 -U 0.555715 -V 0.831373 -T 8.066110
n -t 68.000000 -s 8 -x 70.753555 -y 49.506225 -U 0.688256 -V 0.725468 -T 22.772693
n -t 69.000000 -s 4 -x 69.184438 -y 87.619997 -U 0.754974 -V -0.655755 -T 22.396761
n -t 69.000000 -s 5 -x 91.367780 -y 51.777278 -U -0.083585 -V 0.996501 -T 12.939930
n -t 69.000000 -s 6 -x 88.027082 -y 55.531035 -U 0.129271 -V 0.991609 -T 9.242902
n -t 69.000000 -s 7 -x 83.162953 -y 59.622993 -U 0.555715 -V 0.831373 -T 7.066110
n -t 69.000000 -s 8 -x 71.441810 -y 50.231693 -U 0.688256 -V 0.725468 -T 21.772693
n -t 70.000000 -s 10 -x 89.868270 -y 69.654430 -U -2.141657 -V -0.489880 -T 35.211920
n -t 70.000000 -s 4 -x 69.939411 -y 86.964242 -U 0.754974 -V -0.655755 -T 21.396761
n -t 70.000000 -s 5 -x 91.284195 -y 52.773779 -U -0.083585 -V 0.996501 -T 11.939930
n -t 70.000000 -s 6 -x 88.156352 -y 56.522645 -U 0.129271 -V 0.991609 -T 8.242902
n -t 70.000000 -s 7 -x 83.718668 -y 60.454366 -U 0.555715 -V 0.831373 -T 6.066110
n -t 70.000000 -s 8 -x 72.130066 -y 50.957161 -U 0.688256 -V 0.725468 -T 20.772693
n -t 71.000000 -s 4 -x 70.694385 -y 86.308487 -U 0.704792 -V -0.709414 -T 19.166327
n -t 71.000000 -s 5 -x 91.200610 -y 53.770280 -U -0.220133 -V 0.975470 -T 10.781389
n -t 71.000000 -s 6 -x 88.285623 -y 57.514254 -U -0.047927 -V 0.998851 -T 6.663700
n -t 71.000000 -s 7 -x 84.274383 -y 61.285739 -U 0.401331 -V 0.915933 -T 3.601951
n -t 71.000000 -s 8 -x 72.818322 -y 51.682630 -U 0.648877 -V 0.760893 -T 17.975524
n -t 71.000000 -s 4 -x 70.694385 -y 86.308487 -U 0.000000 -V 0.000000 -T 0.000000
n -t 71.000000 -s 5 -x 91.200610 -y 53.770280 -U 0.000000 -V 0.000000 -T 0.000000
n -t 71.000000 -s 6 -x 88.285623 -y 57.514254 -U 0.000000 -V 0.000000 -T 0.000000
n -t 71.000000 -s 8 -x 72.818322 -y 51.682630 -U 0.000000 -V 0.000000 -T 0.000000
n -t 72.000000 -s 4 -x 70.694385 -y 86.308487 -U 0.000000 -V 0.000000 -T 0.000000
n -t 72.000000 -s 5 -x 91.200610 -y 53.770280 -U 0.000000 -V 0.000000 -T 0.000000
n -t 72.000000 -s 6 -x 88.285623 -y 57.514254 -U 0.000000 -V 0.000000 -T 0.000000
n -t 72.000000 -s 8 -x 72.818322 -y 51.682630 -U 0.000000 -V 0.000000 -T 0.000000
n -t 73.000000 -s 4 -x 70.694385 -y 86.308487 -U 0.000000 -V 0.000000 -T 0.000000
n -t 73.000000 -s 5 -x 91.200610 -y 53.770280 -U 0.000000 -V 0.000000 -T 0.000000
n -t 73.000000 -s 6 -x 88.285623 -y 57.514254 -U 0.000000 -V 0.000000 -T 0.000000
n -t 73.000000 -s 8 -x 72.818322 -y 51.682630 -U 0.000000 -V 0.000000 -T 0.000000
n -t 74.000000 -s 4 -x 70.694385 -y 86.308487 -U 0.000000 -V 0.000000 -T 0.000000