n -t * -s 0  -x 64.899180000000001 -y 22.590579999999999 -Z 0 -z 1  -v circle -c black
n -t * -s 1  -x 48.671779999999998 -y 98.515039999999999 -Z 0 -z 1  -v circle -c black
n -t * -s 2  -x 17.949670000000001 -y 6.8050699999999997 -Z 0 -z 1  -v circle -c black
n -t * -s 3  -x 18.618819999999999 -y 43.958959999999998 -Z 0 -z 1  -v circle -c black
n -t * -s 4  -x 9.1676009999999994 -y 3.2113209999999999 -Z 0 -z 1  -v circle -c black
n -t * -s 5  -x 30.890000000000001 -y 23.390149999999998 -Z 0 -z 1  -v circle -c black
n -t * -s 6  -x 64.571569999999994 -y 81.378699999999995 -Z 0 -z 1  -v circle -c black
n -t * -s 7  -x 25.621259999999999 -y 67.804779999999994 -Z 0 -z 1  -v circle -c black
n -t * -s 8  -x 51.426549999999999 -y 32.108849999999997 -Z 0 -z 1  -v circle -c black
n -t * -s 9  -x 94.702060000000003 -y 16.154260000000001 -Z 0 -z 1  -v circle -c black
n -t * -s 10  -x 31.015070000000001 -y 91.687950000000001 -Z 0 -z 2  -v circle -c black
V -t * -v 1.0a5 -a 0
W -t * -x 100 -y 100
A -t * -n 1 -p 0 -o 0x7fffffff -c 30 -a 1
A -t * -h 1 -m 1073741823 -s 0
n -t 0 -s 10 -S COLOR -c red -o black -i red -I black
n -t 0.000000 -s 10 -x 31.015070 -y 91.687950 -U 3.892702 -V -2.293886 -T 14.156123
n -t 0.000000 -s 1 -x 48.671780 -y 98.515040 -U -0.932706 -V -0.360637 -T 13.930625
n -t 0.000000 -s 6 -x 64.571570 -y 81.378700 -U -0.955906 -V 0.293674 -T 30.104406
n -t 0.000000 -s 7 -x 25.621260 -y 67.804780 -U 0.220293 -V 0.975434 -T 19.484669
n -t 1.000000 -s 1 -x 47.739074 -y 98.154403 -U -0.825876 -V -0.563852 -T 10.536597
n -t 1.000000 -s 6 -x 63.615664 -y 81.672374 -U -0.965678 -V 0.259743 -T 24.728229
n -t 1.000000 -s 7 -x 25.841553 -y 68.780214 -U 0.402594 -V 0.915378 -T 17.519483
n -t 2.000000 -s 1 -x 46.913198 -y 97.590551 -U -0.611756 -V -0.791047 -T 8.261381
n -t 2.000000 -s 6 -x 62.649986 -y 81.932117 -U -0.977317 -V 0.211779 -T 19.403035
n -t 2.000000 -s 7 -x 26.244148 -y 69.695592 -U 0.585072 -V 0.810981 -T 16.461149
n -t 3.000000 -s 1 -x 46.301442 -y 96.799504 -U -0.288102 -V -0.957600 -T 7.524247
n -t 3.000000 -s 6 -x 61.672669 -y 82.143896 -U -0.990304 -V 0.138917 -T 14.165320
n -t 3.000000 -s 7 -x 26.829220 -y 70.506573 -U 0.742778 -V 0.669538 -T 16.357598
n -t 4.000000 -s 1 -x 46.013340 -y 95.841904 -U 0.042913 -V -0.999079 -T 8.341791
n -t 4.000000 -s 6 -x 60.682365 -y 82.282813 -U -0.999867 -V 0.016285 -T 9.098357
n -t 4.000000 -s 7 -x 27.571998 -y 71.176111 -U 0.858925 -V 0.512101 -T 17.136828
n -t 5.000000 -s 1 -x 46.056253 -y 94.842826 -U 0.289451 -V -0.957193 -T 10.278330
n -t 5.000000 -s 6 -x 59.682498 -y 82.299098 -U -0.975389 -V -0.220490 -T 4.436149
n -t 5.000000 -s 7 -x 28.430923 -y 71.688212 -U 0.932629 -V 0.360837 -T 18.640331
n -t 5.000000 -s 1 -x 46.056253 -y 94.842826 -U 0.000000 -V 0.000000 -T 0.000000
n -t 5.000000 -s 7 -x 28.430923 -y 71.688212 -U 0.000000 -V 0.000000 -T 0.000000
n -t 6.000000 -s 1 -x 46.056253 -y 94.842826 -U 0.000000 -V 0.000000 -T 0.000000
n -t 6.000000 -s 7 -x 28.430923 -y 71.688212 -U 0.000000 -V 0.000000 -T 0.000000
n -t 7.000000 -s 1 -x 46.056253 -y 94.842826 -U 0.000000 -V 0.000000 -T 0.000000
n -t 7.000000 -s 7 -x 28.430923 -y 71.688212 -U 0.000000 -V 0.000000 -T 0.000000
n -t 8.000000 -s 1 -x 46.056253 -y 94.842826 -U 0.000000 -V 0.000000 -T 0.000000
n -t 8.000000 -s 7 -x 28.430923 -y 71.688212 -U 0.000000 -V 0.000000 -T 0.000000
n -t 10.000000 -s 1 -x 46.056253 -y 94.842826 -U 0.675211 -V -0.737625 -T 30.375366
n -t 10.000000 -s 6 -x 55.355526 -y 81.320970 -U 0.757480 -V -0.652858 -T 14.256691
n -t 10.000000 -s 7 -x 28.430923 -y 71.688212 -U 0.997503 -V -0.070626 -T 36.615086
n -t 10.000000 -s 8 -x 51.426550 -y 32.108850 -U 0.451018 -V 0.892515 -T 36.052796
n -t 11.000000 -s 1 -x 46.731464 -y 94.105201 -U 0.700012 -V -0.714131 -T 33.718381
n -t 11.000000 -s 6 -x 56.113006 -y 80.668112 -U 0.780106 -V -0.625647 -T 17.717143
n -t 11.000000 -s 8 -x 51.877568 -y 33.001365 -U 0.548711 -V 0.836012 -T 35.015981
n -t 12.000000 -s 1 -x 47.431476 -y 93.391070 -U 0.719657 -V -0.694329 -T 37.097832
n -t 12.000000 -s 6 -x 56.893112 -y 80.042465 -U 0.795297 -V -0.606220 -T 21.196993
n -t 12.000000 -s 8 -x 52.426279 -y 33.837377 -U 0.640652 -V 0.767832 -T 34.492943
n -t 13.000000 -s 6 -x 57.688409 -y 79.436244 -U 0.806102 -V -0.591776 -T 24.688277
n -t 13.000000 -s 8 -x 53.066931 -y 34.605209 -U 0.723269 -V 0.690566 -T 34.478063
n -t 14.000000 -s 0 -x 64.899180 -y 22.590580 -U 0.486863 -V 0.873478 -T 37.339871
n -t 14.000000 -s 6 -x 58.494511 -y 78.844468 -U 0.814131 -V -0.580681 -T 28.186773
n -t 14.000000 -s 8 -x 53.790200 -y 35.295775 -U 0.794125 -V 0.607754 -T 34.946707
n -t 15.000000 -s 0 -x 65.386043 -y 23.464058 -U 0.501697 -V 0.865044 -T 36.328957
n -t 15.000000 -s 6 -x 59.308642 -y 78.263787 -U 0.815213 -V -0.579162 -T 27.889571
n -t 15.000000 -s 8 -x 54.584325 -y 35.903529 -U 0.804147 -V 0.594431 -T 34.217126
n -t 16.000000 -s 0 -x 65.887740 -y 24.329102 -U 0.501697 -V 0.865044 -T 35.328957
n -t 16.000000 -s 6 -x 60.123855 -y 77.684625 -U 0.815213 -V -0.579162 -T 26.889571
n -t 16.000000 -s 8 -x 55.388472 -y 36.497960 -U 0.804147 -V 0.594431 -T 33.217126
n -t 17.000000 -s 0 -x 66.389436 -y 25.194146 -U 0.501697 -V 0.865044 -T 34.328957
n -t 17.000000 -s 6 -x 60.939068 -y 77.105464 -U 0.815213 -V -0.579162 -T 25.889571
n -t 17.000000 -s 8 -x 56.192618 -y 37.092391 -U 0.804147 -V 0.594431 -T 32.217126
n -t 18.000000 -s 0 -x 66.891133 -y 26.059189 -U 0.501697 -V 0.865044 -T 33.328957
n -t 18.000000 -s 6 -x 61.754281 -y 76.526302 -U 0.815213 -V -0.579162 -T 24.889571
n -t 18.000000 -s 8 -x 56.996765 -y 37.686822 -U 0.804147 -V 0.594431 -T 31.217126
n -t 19.000000 -s 0 -x 67.392829 -y 26.924233 -U 0.501697 -V 0.865044 -T 32.328957
n -t 19.000000 -s 6 -x 62.569493 -y 75.947141 -U 0.815213 -V -0.579162 -T 23.889571
n -t 19.000000 -s 8 -x 57.800911 -y 38.281253 -U 0.804147 -V 0.594431 -T 30.217126
n -t 20.000000 -s 10 -x 86.120640 -y 59.215410 -U 5.161926 -V -0.517697 -T 1.549960
n -t 20.000000 -s 0 -x 67.894526 -y 27.789277 -U 0.501697 -V 0.865044 -T 31.328957
n -t 20.000000 -s 6 -x 63.384706 -y 75.367979 -U 0.815213 -V -0.579162 -T 22.889571
n -t 20.000000 -s 8 -x 58.605058 -y 38.875684 -U 0.804147 -V 0.594431 -T 29.217126
n -t 21.000000 -s 0 -x 68.396223 -y 28.654320 -U 0.605979 -V 0.795481 -T 32.767581
n -t 21.000000 -s 6 -x 64.199919 -y 74.788817 -U 0.859704 -V -0.510792 -T 26.502276
n -t 21.000000 -s 8 -x 59.409204 -y 39.470116 -U 0.856263 -V 0.516540 -T 32.223805
n -t 22.000000 -s 0 -x 69.002201 -y 29.449801 -U 0.655195 -V 0.755460 -T 33.338519
n -t 22.000000 -s 6 -x 65.059623 -y 74.278026 -U 0.877729 -V -0.479158 -T 28.110226
n -t 22.000000 -s 8 -x 60.265467 -y 39.986656 -U 0.878337 -V 0.478041 -T 33.545502
n -t 22.000000 -s 9 -x 94.702060 -y 16.154260 -U -0.013739 -V 0.999906 -T 37.262729
n -t 23.000000 -s 10 -x 94.121420 -y 58.413000 -U -5.731604 -V 0.721228 -T 12.565068
n -t 23.000000 -s 0 -x 69.657396 -y 30.205261 -U 0.655195 -V 0.755460 -T 32.338519
n -t 23.000000 -s 6 -x 65.937352 -y 73.798868 -U 0.877729 -V -0.479158 -T 27.110226
n -t 23.000000 -s 8 -x 61.143805 -y 40.464697 -U 0.878337 -V 0.478041 -T 32.545502
n -t 23.000000 -s 9 -x 94.688321 -y 17.154166 -U -0.013739 -V 0.999906 -T 36.262729
n -t 24.000000 -s 0 -x 70.312592 -y 30.960720 -U 0.540032 -V 0.841644 -T 28.474357
n -t 24.000000 -s 1 -x 56.067365 -y 85.059118 -U 0.780080 -V -0.625679 -T 36.434777
n -t 24.000000 -s 6 -x 66.815081 -y 73.319710 -U 0.835567 -V -0.549389 -T 20.820478
n -t 24.000000 -s 8 -x 62.022142 -y 40.942739 -U 0.823112 -V 0.567879 -T 27.034115
n -t 24.000000 -s 9 -x 94.674582 -y 18.154071 -U -0.151589 -V 0.988444 -T 36.459276
n -t 25.000000 -s 0 -x 70.852624 -y 31.802365 -U 0.387883 -V 0.921709 -T 25.435963
n -t 25.000000 -s 1 -x 56.847446 -y 84.433439 -U 0.724190 -V -0.689601 -T 30.640888
n -t 25.000000 -s 6 -x 67.650648 -y 72.770321 -U 0.757976 -V -0.652282 -T 14.799513
n -t 25.000000 -s 7 -x 43.393466 -y 70.628815 -U 0.964359 -V -0.264598 -T 35.715913
n -t 25.000000 -s 8 -x 62.845254 -y 41.510617 -U 0.733770 -V 0.679398 -T 22.001600
n -t 25.000000 -s 9 -x 94.522993 -y 19.142515 -U -0.279786 -V 0.960062 -T 37.406563
n -t 26.000000 -s 0 -x 71.240507 -y 32.724073 -U 0.200024 -V 0.979791 -T 23.427094
n -t 26.000000 -s 1 -x 57.571635 -y 83.743838 -U 0.641142 -V -0.767422 -T 25.188276
n -t 26.000000 -s 6 -x 68.408624 -y 72.118039 -U 0.593824 -V -0.804595 -T 9.344299
n -t 26.000000 -s 7 -x 44.357825 -y 70.364217 -U 0.957689 -V -0.287804 -T 29.007668
n -t 26.000000 -s 8 -x 63.579024 -y 42.190015 -U 0.587465 -V 0.809250 -T 17.720643
n -t 27.000000 -s 0 -x 71.440531 -y 33.703864 -U -0.008897 -V 0.999960 -T 22.595140
n -t 27.000000 -s 1 -x 58.212777 -y 82.976416 -U 0.513772 -V -0.857927 -T 20.268473
n -t 27.000000 -s 6 -x 69.002448 -y 71.313444 -U 0.213851 -V -0.976866 -T 5.252716
n -t 27.000000 -s 7 -x 45.315514 -y 70.076413 -U 0.947001 -V -0.321229 -T 22.327826
n -t 27.000000 -s 8 -x 64.166489 -y 42.999265 -U 0.358560 -V 0.933507 -T 14.602054
n -t 28.000000 -s 0 -x 71.431633 -y 34.703825 -U -0.213458 -V 0.976952 -T 22.959726
n -t 28.000000 -s 1 -x 58.726549 -y 82.118489 -U 0.317801 -V -0.948157 -T 16.198325
n -t 28.000000 -s 6 -x 69.216299 -y 70.336578 -U -0.411281 -V -0.911509 -T 4.124911
n -t 28.000000 -s 7 -x 46.262516 -y 69.755184 -U 0.927546 -V -0.373709 -T 15.700733
n -t 28.000000 -s 8 -x 64.525049 -y 43.932772 -U 0.051812 -V 0.998657 -T 13.110694
n -t 28.000000 -s 0 -x 71.431633 -y 34.703825 -U 0.000000 -V 0.000000 -T 0.000000
n -t 28.000000 -s 1 -x 58.726549 -y 82.118489 -U 0.000000 -V 0.000000 -T 0.000000
n -t 28.000000 -s 7 -x 46.262516 -y 69.755184 -U 0.000000 -V 0.000000 -T 0.000000
n -t 28.000000 -s 8 -x 64.525049 -y 43.932772 -U 0.000000 -V 0.000000 -T 0.000000
n -t 30.000000 -s 0 -x 71.431633 -y 34.703825 -U -0.518356 -V 0.855165 -T 28.628330
n -t 30.000000 -s 1 -x 58.726549 -y 82.118489 -U -0.245573 -V -0.969378 -T 14.246248
n -t 30.000000 -s 3 -x 18.618820 -y 43.958960 -U 0.875767 -V 0.482733 -T 35.400426
n -t 30.000000 -s 6 -x 68.393738 -y 68.513560 -U -0.943567 -V -0.331181 -T 10.254392
n -t 30.000000 -s 7 -x 46.262516 -y 69.755184 -U 0.775784 -V -0.630999 -T 4.974011
n -t 30.000000 -s 8 -x 64.525049 -y 43.932772 -U -0.474426 -V 0.880295 -T 17.184400
n -t 30.000000 -s 0 -x 71.431633 -y 34.703825 -U 0.000000 -V 0.000000 -T 0.000000
n -t 30.000000 -s 1 -x 58.726549 -y 82.118489 -U 0.000000 -V 0.000000 -T 0.000000
n -t 30.000000 -s 3 -x 18.618820 -y 43.958960 -U 0.000000 -V 0.000000 -T 0.000000
n -t 30.000000 -s 6 -x 68.393738 -y 68.513560 -U 0.000000 -V 0.000000 -T 0.000000
n -t 30.000000 -s 8 -x 64.525049 -y 43.932772 -U 0.000000 -V 0.000000 -T 0.000000
n -t 31.000000 -s 0 -x 71.431633 -y 34.703825 -U 0.000000 -V 0.000000 -T 0.000000
n -t 31.000000 -s 1 -x 58.726549 -y 82.118489 -U 0.000000 -V 0.000000 -T 0.000000
n -t 31.000000 -s 3 -x 18.618820 -y 43.958960 -U 0.000000 -V 0.000000 -T 0.000000
n -t 31.000000 -s 6 -x 68.393738 -y 68.513560 -U 0.000000 -V 0.000000 -T 0.000000
n -t 31.000000 -s 8 -x 64.525049 -y 43.932772 -U 0.000000 -V 0.000000 -T 0.000000
n -t 32.000000 -s 0 -x 71.431633 -y 34.703825 -U 0.000000 -V 0.000000 -T 0.000000
n -t 32.000000 -s 1 -x 58.726549 -y 82.118489 -U 0.000000 -V 0.000000 -T 0.000000
n -t 32.000000 -s 3 -x 18.618820 -y 43.958960 -U 0.000000 -V 0.000000 -T 0.000000
n -t 32.000000 -s 6 -x 68.393738 -y 68.513560 -U 0.000000 -V 0.000000 -T 0.000000
n -t 32.000000 -s 8 -x 64.525049 -y 43.932772 -U 0.000000 -V 0.000000 -T 0.000000
n -t 34.000000 -s 1 -x 58.726549 -y 82.118489 -U -0.868643 -V -0.495438 -T 26.834433
n -t 34.000000 -s 3 -x 18.618820 -y 43.958960 -U 0.486163 -V 0.873868 -T 20.618906
n -t 34.000000 -s 6 -x 68.393738 -y 68.513560 -U -0.998318 -V -0.057969 -T 32.382824
n -t 34.000000 -s 7 -x 49.365651 -y 67.231189 -U -0.998832 -V -0.048308 -T 13.313255
n -t 34.000000 -s 8 -x 64.525049 -y 43.932772 -U -0.830754 -V 0.556640 -T 35.266155
n -t 35.000000 -s 1 -x 57.857906 -y 81.623051 -U -0.912726 -V -0.408572 -T 30.624851
n -t 35.000000 -s 3 -x 19.104983 -y 44.832828 -U 0.270088 -V 0.962836 -T 18.093153
n -t 35.000000 -s 6 -x 67.395420 -y 68.455591 -U -0.999456 -V -0.032984 -T 37.076141
n -t 35.000000 -s 7 -x 48.366819 -y 67.182881 -U -0.999987 -V -0.005001 -T 18.024933
n -t 36.000000 -s 1 -x 56.945180 -y 81.214479 -U -0.930284 -V -0.366840 -T 32.452812
n -t 36.000000 -s 3 -x 19.375071 -y 45.795664 -U 0.124864 -V 0.992174 -T 16.850622
n -t 36.000000 -s 7 -x 47.366831 -y 67.177880 -U -0.999931 -V 0.011771 -T 20.265152
n -t 37.000000 -s 1 -x 56.014896 -y 80.847639 -U -0.930284 -V -0.366840 -T 31.452812
n -t 37.000000 -s 3 -x 19.499935 -y 46.787838 -U 0.124864 -V 0.992174 -T 15.850622
n -t 37.000000 -s 7 -x 46.366901 -y 67.189651 -U -0.999931 -V 0.011771 -T 19.265152
n -t 38.000000 -s 1 -x 55.084612 -y 80.480799 -U -0.930284 -V -0.366840 -T 30.452812
n -t 38.000000 -s 3 -x 19.624799 -y 47.780012 -U 0.124864 -V 0.992174 -T 14.850622
n -t 38.000000 -s 6 -x 64.397052 -y 68.356638 -U -0.999783 -V -0.020835 -T 37.302804
n -t 38.000000 -s 7 -x 45.366970 -y 67.201422 -U -0.999931 -V 0.011771 -T 18.265152
n -t 39.000000 -s 1 -x 54.154328 -y 80.113959 -U -0.930284 -V -0.366840 -T 29.452812
n -t 39.000000 -s 3 -x 19.749663 -y 48.772185 -U 0.124864 -V 0.992174 -T 13.850622
n -t 39.000000 -s 6 -x 63.397269 -y 68.335803 -U -0.999783 -V -0.020835 -T 36.302804
n -t 39.000000 -s 7 -x 44.367039 -y 67.213194 -U -0.999931 -V 0.011771 -T 17.265152
n -t 40.000000 -s 10 -x 22.103430 -y 67.475280 -U -2.329529 -V 1.855688 -T 7.430451
n -t 40.000000 -s 1 -x 53.224044 -y 79.747118 -U -0.930284 -V -0.366840 -T 28.452812
n -t 40.000000 -s 3 -x 19.874528 -y 49.764359 -U 0.124864 -V 0.992174 -T 12.850622
n -t 40.000000 -s 6 -x 62.397486 -y 68.314969 -U -0.999783 -V -0.020835 -T 35.302804
n -t 40.000000 -s 7 -x 43.367109 -y 67.224965 -U -0.999931 -V 0.011771 -T 16.265152
n -t 41.000000 -s 1 -x 52.293760 -y 79.380278 -U -0.955422 -V -0.295245 -T 29.037183
n -t 41.000000 -s 3 -x 19.999392 -y 50.756533 -U -0.012139 -V 0.999926 -T 13.575804
n -t 41.000000 -s 6 -x 61.397703 -y 68.294134 -U -0.999690 -V 0.024902 -T 36.636714
n -t 41.000000 -s 7 -x 42.367178 -y 67.236736 -U -0.995732 -V 0.092297 -T 17.690129
n -t 42.000000 -s 1 -x 51.338338 -y 79.085033 -U -0.973906 -V -0.226951 -T 29.802087
n -t 42.000000 -s 3 -x 19.987253 -y 51.756459 -U -0.129766 -V 0.991545 -T 14.595887
n -t 42.000000 -s 7 -x 41.371446 -y 67.329033 -U -0.987251 -V 0.159169 -T 19.236050
n -t 43.000000 -s 1 -x 50.364432 -y 78.858082 -U -0.986661 -V -0.162787 -T 30.726129
n -t 43.000000 -s 3 -x 19.857487 -y 52.748004 -U -0.227562 -V 0.973764 -T 15.841135
n -t 43.000000 -s 7 -x 40.384195 -y 67.488202 -U -0.976686 -V 0.214673 -T 20.872546
n -t 44.000000 -s 1 -x 49.377771 -y 78.695295 -U -0.994659 -V -0.103217 -T 31.788953
n -t 44.000000 -s 3 -x 19.629925 -y 53.721768 -U -0.307554 -V 0.951530 -T 17.254952
n -t 44.000000 -s 7 -x 39.407509 -y 67.702875 -U -0.965364 -V 0.260908 -T 22.577373
n -t 45.000000 -s 1 -x 48.383112 -y 78.592078 -U -0.998827 -V -0.048414 -T 32.971853
n -t 45.000000 -s 3 -x 19.322371 -y 54.673298 -U -0.372637 -V 0.927977 -T 18.794146
n -t 45.000000 -s 7 -x 38.442145 -y 67.963783 -U -0.954050 -V 0.299647 -T 24.334269
n -t 46.000000 -s 1 -x 47.384285 -y 78.543664 -U -0.999999 -V 0.001675 -T 34.258082
n -t 46.000000 -s 3 -x 18.949733 -y 55.601275 -U -0.425672 -V 0.904877 -T 20.426794
n -t 46.000000 -s 7 -x 37.488095 -y 68.263430 -U -0.943162 -V 0.332334 -T 26.131283
n -t 47.000000 -s 1 -x 46.384286 -y 78.545339 -U -0.998883 -V 0.047246 -T 35.632934
n -t 47.000000 -s 3 -x 18.524061 -y 56.506153 -U -0.469131 -V 0.883129 -T 22.129615
n -t 47.000000 -s 7 -x 36.544933 -y 68.595764 -U -0.932907 -V 0.360118 -T 27.959569
n -t 48.000000 -s 1 -x 45.385403 -y 78.592585 -U -0.997842 -V 0.065667 -T 35.679226
n -t 48.000000 -s 3 -x 18.054931 -y 57.389282 -U -0.485567 -V 0.874199 -T 22.310241
n -t 48.000000 -s 7 -x 35.612027 -y 68.955882 -U -0.928676 -V 0.370891 -T 28.184918
n -t 49.000000 -s 1 -x 44.387561 -y 78.658252 -U -0.997842 -V 0.065667 -T 34.679226
n -t 49.000000 -s 3 -x 17.569364 -y 58.263481 -U -0.485567 -V 0.874199 -T 21.310241
n -t 49.000000 -s 7 -x 34.683350 -y 69.326773 -U -0.928676 -V 0.370891 -T 27.184918
n -t 50.000000 -s 10 -x 4.793980 -y 81.263880 -U 0.175050 -V -1.763488 -T 39.002374
n -t 50.000000 -s 1 -x 43.389720 -y 78.723920 -U -0.997842 -V 0.065667 -T 33.679226
n -t 50.000000 -s 3 -x 17.083797 -y 59.137681 -U -0.485567 -V 0.874199 -T 20.310241
n -t 50.000000 -s 7 -x 33.754674 -y 69.697665 -U -0.928676 -V 0.370891 -T 26.184918
n -t 51.000000 -s 1 -x 42.391878 -y 78.789587 -U -0.999820 -V 0.018990 -T 32.429598
n -t 51.000000 -s 3 -x 16.598230 -y 60.011880 -U -0.512424 -V 0.858733 -T 17.694501
n -t 51.000000 -s 7 -x 32.825998 -y 70.068556 -U -0.947182 -V 0.320698 -T 24.410376
n -t 52.000000 -s 1 -x 41.392058 -y 78.808577 -U -0.999563 -V -0.029552 -T 31.263817
n -t 52.000000 -s 3 -x 16.085806 -y 60.870613 -U -0.544241 -V 0.838929 -T 15.104555
n -t 52.000000 -s 7 -x 31.878816 -y 70.389254 -U -0.964246 -V 0.265009 -T 22.726054
n -t 53.000000 -s 1 -x 40.392495 -y 78.779025 -U -0.996816 -V -0.079738 -T 30.185401
n -t 53.000000 -s 3 -x 15.541565 -y 61.709542 -U -0.582519 -V 0.812817 -T 12.548683
n -t 53.000000 -s 7 -x 30.914570 -y 70.654263 -U -0.979081 -V 0.203469 -T 21.142302
n -t 54.000000 -s 1 -x 39.395679 -y 78.699287 -U -0.991346 -V -0.131278 -T 29.197457
n -t 54.000000 -s 3 -x 14.959046 -y 62.522359 -U -0.629339 -V 0.777131 -T 10.039380
n -t 54.000000 -s 7 -x 29.935489 -y 70.857732 -U -0.990725 -V 0.135881 -T 19.670120
n -t 55.000000 -s 1 -x 38.404334 -y 78.568010 -U -0.982961 -V -0.183817 -T 28.302563
n -t 55.000000 -s 3 -x 14.329707 -y 63.299490 -U -0.687533 -V 0.726153 -T 7.596450
n -t 55.000000 -s 6 -x 47.402045 -y 68.642761 -U -0.995872 -V 0.090767 -T 36.905797
n -t 55.000000 -s 7 -x 28.944764 -y 70.993612 -U -0.998058 -V 0.062297 -T 18.320832
n -t 56.000000 -s 1 -x 37.421373 -y 78.384193 -U -0.971524 -V -0.236942 -T 27.502646
n -t 56.000000 -s 3 -x 13.642174 -y 64.025643 -U -0.760537 -V 0.649294 -T 5.253141
n -t 56.000000 -s 6 -x 46.406172 -y 68.733528 -U -0.998847 -V 0.048005 -T 35.608711
n -t 56.000000 -s 7 -x 27.946706 -y 71.055910 -U -0.999858 -V -0.016872 -T 17.105573
n -t 57.000000 -s 1 -x 36.449849 -y 78.147251 -U -0.956968 -V -0.290192 -T 26.798878
n -t 57.000000 -s 3 -x 12.881637 -y 64.674937 -U -0.850463 -V 0.526035 -T 3.068907
n -t 57.000000 -s 6 -x 45.407325 -y 68.781533 -U -0.999994 -V 0.003502 -T 34.388238
n -t 57.000000 -s 7 -x 26.946848 -y 71.039038 -U -0.994910 -V -0.100766 -T 16.034583
n -t 57.000000 -s 8 -x 45.417706 -y 56.735483 -U -0.955360 -V 0.295446 -T 36.239319
n -t 57.000000 -s 1 -x 36.449849 -y 78.147251 -U 0.000000 -V 0.000000 -T 0.000000
n -t 57.000000 -s 6 -x 45.407325 -y 68.781533 -U 0.000000 -V 0.000000 -T 0.000000
n -t 57.000000 -s 7 -x 26.946848 -y 71.039038 -U 0.000000 -V 0.000000 -T 0.000000
n -t 57.000000 -s 8 -x 45.417706 -y 56.735483 -U 0.000000 -V 0.000000 -T 0.000000
n -t 58.000000 -s 1 -x 36.449849 -y 78.147251 -U 0.000000 -V 0.000000 -T 0.000000
n -t 58.000000 -s 6 -x 45.407325 -y 68.781533 -U 0.000000 -V 0.000000 -T 0.000000
n -t 58.000000 -s 7 -x 26.946848 -y 71.039038 -U 0.000000 -V 0.000000 -T 0.000000
n -t 58.000000 -s 8 -x 45.417706 -y 56.735483 -U 0.000000 -V 0.000000 -T 0.000000
n -t 59.000000 -s 1 -x 36.449849 -y 78.147251 -U 0.000000 -V 0.000000 -T 0.000000
n -t 59.000000 -s 6 -x 45.407325 -y 68.781533 -U 0.000000 -V 0.000000 -T 0.000000
n -t 59.000000 -s 7 -x 26.946848 -y 71.039038 -U 0.000000 -V 0.000000 -T 0.000000
n -t 59.000000 -s 8 -x 45.417706 -y 56.735483 -U 0.000000 -V 0.000000 -T 0.000000
n -t 60.000000 -s 1 -x 36.449849 -y 78.147251 -U 0.000000 -V 0.000000 -T 0.000000
n -t 60.000000 -s 6 -x 45.407325 -y 68.781533 -U 0.000000 -V 0.000000 -T 0.000000
n -t 60.000000 -s 7 -x 26.946848 -y 71.039038 -U 0.000000 -V 0.000000 -T 0.000000
n -t 60.000000 -s 8 -x 45.417706 -y 56.735483 -U 0.000000 -V 0.000000 -T 0.000000
n -t 61.000000 -s 1 -x 36.449849 -y 78.147251 -U 0.000000 -V 0.000000 -T 0.000000
n -t 61.000000 -s 6 -x 45.407325 -y 68.781533 -U 0.000000 -V 0.000000 -T 0.000000
n -t 61.000000 -s 7 -x 26.946848 -y 71.039038 -U 0.000000 -V 0.000000 -T 0.000000
n -t 61.000000 -s 8 -x 45.417706 -y 56.735483 -U 0.000000 -V 0.000000 -T 0.000000
n -t 62.000000 -s 1 -x 36.449849 -y 78.147251 -U 0.000000 -V 0.000000 -T 0.000000
n -t 62.000000 -s 6 -x 45.407325 -y 68.781533 -U 0.000000 -V 0.000000 -T 0.000000
n -t 62.000000 -s 7 -x 26.946848 -y 71.039038 -U 0.000000 -V 0.000000 -T 0.000000
n -t 62.000000 -s 8 -x 45.417706 -y 56.735483 -U 0.000000 -V 0.000000 -T 0.000000
n -t 63.000000 -s 1 -x 36.449849 -y 78.147251 -U 0.000000 -V 0.000000 -T 0.000000
n -t 63.000000 -s 6 -x 45.407325 -y 68.781533 -U 0.000000 -V 0.000000 -T 0.000000
n -t 63.000000 -s 7 -x 26.946848 -y 71.039038 -U 0.000000 -V 0.000000 -T 0.000000
n -t 63.000000 -s 8 -x 45.417706 -y 56.735483 -U 0.000000 -V 0.000000 -T 0.000000
n -t 65.000000 -s 1 -x 36.449849 -y 78.147251 -U -0.779405 -V -0.626520 -T 32.246511
n -t 65.000000 -s 3 -x 10.271645 -y 66.289289 -U -0.241141 -V -0.970490 -T 6.826740
n -t 65.000000 -s 5 -x 30.890000 -y 23.390150 -U -0.598436 -V 0.801171 -T 34.219363
n -t 65.000000 -s 6 -x 45.407325 -y 68.781533 -U -0.938547 -V -0.345152 -T 35.474904
n -t 65.000000 -s 7 -x 26.946848 -y 71.039038 -U -0.769095 -V -0.639135 -T 20.389754
n -t 65.000000 -s 8 -x 45.417706 -y 56.735483 -U -0.998721 -V -0.050568 -T 33.046653
n -t 66.000000 -s 1 -x 35.670444 -y 77.520731 -U -0.753820 -V -0.657081 -T 32.244520
n -t 66.000000 -s 3 -x 10.030503 -y 65.318799 -U -0.194700 -V -0.980863 -T 7.510140
n -t 66.000000 -s 5 -x 30.291564 -y 24.191321 -U -0.618219 -V 0.786006 -T 31.713158
n -t 66.000000 -s 6 -x 44.468778 -y 68.436382 -U -0.922862 -V -0.385130 -T 34.956128
n -t 66.000000 -s 7 -x 26.177754 -y 70.399903 -U -0.730904 -V -0.682481 -T 20.424657
n -t 66.000000 -s 8 -x 44.418985 -y 56.684916 -U -0.995158 -V -0.098284 -T 32.003363
n -t 67.000000 -s 1 -x 34.916624 -y 76.863650 -U -0.727810 -V -0.685779 -T 32.299295
n -t 67.000000 -s 3 -x 9.835803 -y 64.337936 -U -0.156326 -V -0.987706 -T 8.215838
n -t 67.000000 -s 5 -x 29.673345 -y 24.977326 -U -0.639853 -V 0.768497 -T 29.232085
n -t 67.000000 -s 6 -x 43.545916 -y 68.051252 -U -0.905492 -V -0.424364 -T 34.510123
n -t 67.000000 -s 7 -x 25.446850 -y 69.717422 -U -0.692155 -V -0.721749 -T 20.539124
n -t 67.000000 -s 8 -x 43.423827 -y 56.586631 -U -0.989123 -V -0.147091 -T 31.046073
n -t 68.000000 -s 1 -x 34.188814 -y 76.177871 -U -0.701567 -V -0.712603 -T 32.407594
n -t 68.000000 -s 3 -x 9.679477 -y 63.350230 -U -0.124456 -V -0.992225 -T 8.937501
n -t 68.000000 -s 5 -x 29.033491 -y 25.745823 -U -0.663573 -V 0.748111 -T 26.780387
n -t 68.000000 -s 6 -x 42.640424 -y 67.626888 -U -0.886545 -V -0.462642 -T 34.135672
n -t 68.000000 -s 7 -x 24.754696 -y 68.995673 -U -0.653416 -V -0.756999 -T 20.726044
n -t 68.000000 -s 8 -x 42.434704 -y 56.439540 -U -0.980469 -V -0.196676 -T 30.176882
n -t 69.000000 -s 1 -x 33.487247 -y 75.465267 -U -0.675271 -V -0.737570 -T 32.566150
n -t 69.000000 -s 2 -x 17.949670 -y 6.805070 -U -0.233398 -V 0.972381 -T 37.115719
n -t 69.000000 -s 3 -x 9.555022 -y 62.358005 -U -0.097820 -V -0.995204 -T 9.670762
n -t 69.000000 -s 5 -x 28.369918 -y 26.493935 -U -0.689635 -V 0.724157 -T 24.363340
n -t 69.000000 -s 6 -x 41.753879 -y 67.164246 -U -0.866158 -V -0.499770 -T 33.831180
n -t 69.000000 -s 7 -x 24.101279 -y 68.238674 -U -0.615178 -V -0.788388 -T 20.978412
n -t 69.000000 -s 8 -x 41.454235 -y 56.242864 -U -0.969096 -V -0.246684 -T 29.397322
n -t 70.000000 -s 1 -x 32.811976 -y 74.727697 -U -0.649084 -V -0.760717 -T 32.771709
n -t 70.000000 -s 2 -x 17.716272 -y 7.777451 -U -0.239357 -V 0.970932 -T 34.360820
n -t 70.000000 -s 3 -x 9.457202 -y 61.362801 -U -0.075408 -V -0.997153 -T 10.412569
n -t 70.000000 -s 5 -x 27.680283 -y 27.218092 -U -0.718305 -V 0.695728 -T 21.987573
n -t 70.000000 -s 6 -x 40.887721 -y 66.664476 -U -0.844488 -V -0.535575 -T 33.594699
n -t 70.000000 -s 7 -x 23.486101 -y 67.450286 -U -0.577840 -V -0.816150 -T 21.289495
n -t 70.000000 -s 8 -x 40.485139 -y 55.996181 -U -0.954963 -V -0.296724 -T 28.708276
n -t 71.000000 -s 1 -x 32.162893 -y 73.966980 -U -0.623151 -V -0.782102 -T 33.021082
n -t 71.000000 -s 2 -x 17.476914 -y 8.748383 -U -0.246039 -V 0.969260 -T 31.607562
n -t 71.000000 -s 3 -x 9.381794 -y 60.365648 -U -0.056419 -V -0.998407 -T 11.160763
n -t 71.000000 -s 4 -x 9.167601 -y 3.211321 -U -0.017004 -V 0.999855 -T 36.025236
n -t 71.000000 -s 5 -x 26.961978 -y 27.913820 -U -0.749830 -V 0.661630 -T 19.661517
n -t 71.000000 -s 6 -x 40.043233 -y 66.128901 -U -0.821706 -V -0.569912 -T 33.423974
n -t 71.000000 -s 7 -x 22.908261 -y 66.634136 -U -0.541712 -V -0.840564 -T 21.652952
n -t 71.000000 -s 8 -x 39.530176 -y 55.699456 -U -0.938092 -V -0.346387 -T 28.109922
n -t 72.000000 -s 1 -x 31.539742 -y 73.184879 -U -0.597598 -V -0.801796 -T 33.311164
n -t 72.000000 -s 2 -x 17.230875 -y 9.717643 -U -0.253596 -V 0.967310 -T 28.856246
n -t 72.000000 -s 3 -x 9.325376 -y 59.367241 -U -0.040222 -V -0.999191 -T 11.913790
n -t 72.000000 -s 4 -x 9.150597 -y 4.211176 -U -0.013213 -V 0.999913 -T 33.259301
n -t 72.000000 -s 5 -x 26.212148 -y 28.575450 -U -0.784384 -V 0.620275 -T 17.396003
n -t 72.000000 -s 6 -x 39.221527 -y 65.558989 -U -0.797997 -V -0.602661 -T 33.316484
n -t 72.000000 -s 7 -x 22.366549 -y 65.793572 -U -0.507021 -V -0.861934 -T 22.062914
n -t 72.000000 -s 8 -x 38.592084 -y 55.353070 -U -0.918572 -V -0.395253 -T 27.601694
n -t 73.000000 -s 1 -x 30.942144 -y 72.383082 -U -0.572531 -V -0.819883 -T 33.638972
n -t 73.000000 -s 2 -x 16.977280 -y 10.684953 -U -0.262227 -V 0.965006 -T 26.107255
n -t 73.000000 -s 3 -x 9.285154 -y 58.368050 -U -0.026317 -V -0.999654 -T 12.670521
n -t 73.000000 -s 4 -x 9.137384 -y 5.211089 -U -0.008938 -V 0.999960 -T 30.493978
n -t 73.000000 -s 5 -x 25.427764 -y 29.195726 -U -0.821953 -V 0.569556 -T 15.205096
n -t 73.000000 -s 6 -x 38.423530 -y 64.956328 -U -0.773551 -V -0.633734 -T 33.269491
n -t 73.000000 -s 7 -x 21.859527 -y 64.931639 -U -0.473918 -V -0.880569 -T 22.514022
n -t 73.000000 -s 8 -x 37.673512 -y 54.957816 -U -0.896561 -V -0.442920 -T 27.182279
n -t 74.000000 -s 1 -x 30.369613 -y 71.563200 -U -0.548039 -V -0.836453 -T 34.001656
n -t 74.000000 -s 2 -x 16.715053 -y 11.649959 -U -0.272200 -V 0.962241 -T 23.361094
n -t 74.000000 -s 3 -x 9.258837 -y 57.368397 -U -0.014306 -V -0.999898 -T 13.430121
n -t 74.000000 -s 4 -x 9.128446 -y 6.211049 -U -0.004072 -V 0.999992 -T 27.729384
n -t 74.000000 -s 5 -x 24.605811 -y 29.765281 -U -0.862124 -V 0.506698 -T 13.107190
n -t 74.000000 -s 6 -x 37.649979 -y 64.322594 -U -0.748556 -V -0.663071 -T 33.280094
n -t 74.000000 -s 7 -x 21.385609 -y 64.051070 -U -0.442493 -V -0.896772 -T 23.001438
n -t 74.000000 -s 8 -x 36.776951 -y 54.514897 -U -0.872279 -V -0.489008 -T 26.849637
n -t 75.000000 -s 1 -x 29.821574 -y 70.726747 -U -0.524192 -V -0.851600 -T 34.396518
n -t 75.000000 -s 2 -x 16.442853 -y 12.612200 -U -0.283883 -V 0.958859 -T 20.618439
n -t 75.000000 -s 3 -x 9.244531 -y 56.368499 -U -0.003872 -V -0.999993 -T 14.191970
n -t 75.000000 -s 4 -x 9.124374 -y 7.211041 -U 0.001530 -V 0.999999 -T 24.965667
n -t 75.000000 -s 5 -x 23.743687 -y 30.271979 -U -0.903702 -V 0.428161 -T 11.126393
n -t 75.000000 -s 6 -x 36.901423 -y 63.659523 -U -0.723197 -V -0.690642 -T 33.345281
n -t 75.000000 -s 7 -x 20.943116 -y 63.154298 -U -0.412782 -V -0.910830 -T 23.520833
n -t 75.000000 -s 8 -x 35.904672 -y 54.025888 -U -0.845999 -V -0.533185 -T 26.601054
n -t 76.000000 -s 1 -x 29.297382 -y 69.875147 -U -0.501045 -V -0.865421 -T 34.821016
n -t 76.000000 -s 2 -x 16.158971 -y 13.571059 -U -0.297798 -V 0.954629 -T 17.880229
n -t 76.000000 -s 3 -x 9.240660 -y 55.368506 -U 0.005242 -V -0.999986 -T 14.955596
n -t 76.000000 -s 4 -x 9.125904 -y 8.211040 -U 0.008064 -V 0.999967 -T 22.203030
n -t 76.000000 -s 5 -x 22.839985 -y 30.700140 -U -0.944079 -V 0.329721 -T 9.294053
n -t 76.000000 -s 6 -x 36.178226 -y 62.968881 -U -0.697649 -V -0.716440 -T 33.461976
n -t 76.000000 -s 7 -x 20.530334 -y 62.243468 -U -0.384785 -V -0.923006 -T 24.068361
n -t 76.000000 -s 8 -x 35.058673 -y 53.492703 -U -0.818032 -V -0.575172 -T 26.433227
n -t 77.000000 -s 1 -x 28.796337 -y 69.009725 -U -0.478636 -V -0.878013 -T 35.272773
n -t 77.000000 -s 2 -x 15.861173 -y 14.525688 -U -0.314716 -V 0.949186 -T 15.147805
n -t 77.000000 -s 3 -x 9.245902 -y 54.368520 -U 0.013244 -V -0.999912 -T 15.720641
n -t 77.000000 -s 4 -x 9.133969 -y 9.211007 -U 0.015807 -V 0.999875 -T 19.441743
n -t 77.000000 -s 5 -x 21.895906 -y 31.029861 -U -0.978319 -V 0.207104 -T 7.649843
n -t 77.000000 -s 6 -x 35.480577 -y 62.252441 -U -0.672074 -V -0.740484 -T 33.627084
n -t 77.000000 -s 7 -x 20.145550 -y 61.320462 -U -0.358468 -V -0.933542 -T 24.640624
n -t 77.000000 -s 8 -x 34.240641 -y 52.917531 -U -0.788719 -V -0.614754 -T 26.342358
n -t 78.000000 -s 1 -x 28.317701 -y 68.131712 -U -0.456994 -V -0.889470 -T 35.749571
n -t 78.000000 -s 2 -x 15.546456 -y 15.474874 -U -0.335822 -V 0.941926 -T 12.423175
n -t 78.000000 -s 3 -x 9.259146 -y 53.368608 -U 0.020302 -V -0.999794 -T 16.486828
n -t 78.000000 -s 4 -x 9.149776 -y 10.210882 -U 0.025164 -V 0.999683 -T 16.682192
n -t 78.000000 -s 5 -x 20.917587 -y 31.236965 -U -0.998331 -V 0.057757 -T 6.240976
n -t 78.000000 -s 6 -x 34.808503 -y 61.511957 -U -0.646620 -V -0.762812 -T 33.837535
n -t 78.000000 -s 7 -x 19.787081 -y 60.386920 -U -0.333780 -V -0.942651 -T 25.234634
n -t 78.000000 -s 8 -x 33.451922 -y 52.302777 -U -0.758407 -V -0.651781 -T 26.324268
n -t 79.000000 -s 1 -x 27.860706 -y 67.242243 -U -0.436135 -V -0.899881 -T 36.249353
n -t 79.000000 -s 2 -x 15.210634 -y 16.416799 -U -0.363044 -V 0.931772 -T 9.709524
n -t 79.000000 -s 3 -x 9.279448 -y 52.368814 -U 0.026556 -V -0.999647 -T 17.253942
n -t 79.000000 -s 4 -x 9.174939 -y 11.210566 -U 0.036750 -V 0.999325 -T 13.924938
n -t 79.000000 -s 5 -x 19.919257 -y 31.294722 -U -0.993267 -V -0.115845 -T 5.116946
n -t 79.000000 -s 6 -x 34.161883 -y 60.749145 -U -0.621419 -V -0.783479 -T 34.090316