n -t * -s 0  -x 99.491739999999993 -y 18.49025 -Z 0 -z 1  -v circle -c black
n -t * -s 1  -x 94.982129999999998 -y 38.818199999999997 -Z 0 -z 1  -v circle -c black
n -t * -s 2  -x 68.228309999999993 -y 34.278410000000001 -Z 0 -z 1  -v circle -c black
n -t * -s 3  -x 30.31748 -y 31.958130000000001 -Z 0 -z 1  -v circle -c black
n -t * -s 4  -x 97.861699999999999 -y 44.805729999999997 -Z 0 -z 1  -v circle -c black
n -t * -s 5  -x 57.610689999999998 -y 26.389089999999999 -Z 0 -z 1  -v circle -c black
n -t * -s 6  -x 2.967117 -y 83.677419999999998 -Z 0 -z 1  -v circle -c black
n -t * -s 7  -x 32.23659 -y 76.276380000000003 -Z 0 -z 1  -v circle -c black
n -t * -s 8  -x 53.79063 -y 99.254189999999994 -Z 0 -z 1  -v circle -c black
n -t * -s 9  -x 71.511189999999999 -y 88.988159999999993 -Z 0 -z 1  -v circle -c black
n -t * -s 10  -x 30.500820000000001 -y 14.75197 -Z 0 -z 1  -v circle -c black
n -t * -s 11  -x 20.648250000000001 -y 11.497999999999999 -Z 0 -z 1  -v circle -c black
n -t * -s 12  -x 80.477829999999997 -y 84.72587 -Z 0 -z 1  -v circle -c black
n -t * -s 13  -x 62.243180000000002 -y 70.229420000000005 -Z 0 -z 1  -v circle -c black
n -t * -s 14  -x 21.021519999999999 -y 32.38767 -Z 0 -z 1  -v circle -c black
n -t * -s 15  -x 40.965609999999998 -y 77.879239999999996 -Z 0 -z 1  -v circle -c black
n -t * -s 16  -x 93.673280000000005 -y 35.319229999999997 -Z 0 -z 1  -v circle -c black
n -t * -s 17  -x 30.879049999999999 -y 79.084440000000001 -Z 0 -z 1  -v circle -c black
n -t * -s 18  -x 46.469200000000001 -y 9.5045490000000008 -Z 0 -z 1  -v circle -c black
n -t * -s 19  -x 20.918130000000001 -y 23.355889999999999 -Z 0 -z 1  -v circle -c black
n -t * -s 20  -x 30.086349999999999 -y 57.855080000000001 -Z 0 -z 2  -v circle -c black
n -t * -s 21  -x 92.278509999999997 -y 94.029929999999993 -Z 0 -z 2  -v circle -c black
n -t * -s 22  -x 4.5787800000000001 -y 65.468800000000002 -Z 0 -z 2  -v circle -c black
V -t * -v 1.0a5 -a 0
W -t * -x 100 -y 100
A -t * -n 1 -p 0 -o 0x7fffffff -c 30 -a 1
A -t * -h 1 -m 1073741823 -s 0
n -t 0 -s 20 -S COLOR -c red -o black -i red -I black
n -t 0 -s 21 -S COLOR -c red -o black -i red -I black
n -t 0 -s 22 -S COLOR -c red -o black -i red -I black
n -t 0.000000 -s 20 -x 30.086350 -y 57.855080 -U -0.764071 -V -2.093634 -T 21.694280
n -t 0.000000 -s 21 -x 92.278510 -y 94.029930 -U -0.489817 -V -1.616750 -T 52.823670
n -t 0.000000 -s 22 -x 4.578780 -y 65.468800 -U 0.288411 -V -1.798235 -T 34.748267
n -t 0.000000 -s 12 -x 80.477830 -y 84.725870 -U 0.785280 -V 0.619141 -T 15.027361
n -t 0.000000 -s 6 -x 2.967117 -y 83.677420 -U 0.088166 -V -0.996106 -T 18.279806
n -t 0.000000 -s 7 -x 32.236590 -y 76.276380 -U -0.115939 -V -0.993256 -T 18.546370
n -t 0.000000 -s 17 -x 30.879050 -y 79.084440 -U -0.037314 -V -0.999304 -T 21.244154
n -t 0.000000 -s 9 -x 71.511190 -y 88.988160 -U 0.971772 -V 0.235921 -T 21.370564
n -t 0.000000 -s 15 -x 40.965610 -y 77.879240 -U -0.477397 -V -0.878688 -T 22.788710
n -t 0.000000 -s 3 -x 30.317480 -y 31.958130 -U -0.008925 -V 0.999960 -T 25.897981
n -t 0.000000 -s 14 -x 21.021520 -y 32.387670 -U 0.335330 -V 0.942101 -T 27.032575
n -t 0.000000 -s 13 -x 62.243180 -y 70.229420 -U -0.933284 -V -0.359139 -T 34.455566
n -t 0.000000 -s 19 -x 20.918130 -y 23.355890 -U 0.256837 -V 0.966455 -T 35.696644
n -t 0.000000 -s 8 -x 53.790630 -y 99.254190 -U 0.990913 -V -0.134504 -T 38.840826
n -t 0.000000 -s 5 -x 57.610690 -y 26.389090 -U -0.658391 -V 0.752676 -T 41.805476
n -t 0.000000 -s 7 -x 32.236590 -y 76.276380 -U -0.115939 -V -0.993256 -T 18.546370
n -t 0.000000 -s 12 -x 80.477830 -y 84.725870 -U 0.785280 -V 0.619141 -T 15.027361
n -t 0.000000 -s 6 -x 2.967117 -y 83.677420 -U 0.088166 -V -0.996106 -T 18.279806
n -t 1.000000 -s 7 -x 32.120651 -y 75.283124 -U 0.000000 -V 0.000000 -T 0.000000
n -t 1.000000 -s 17 -x 30.841736 -y 78.085136 -U 0.000000 -V 0.000000 -T 0.000000
n -t 1.000000 -s 15 -x 40.488213 -y 77.000552 -U 0.000000 -V 0.000000 -T 0.000000
n -t 1.000000 -s 3 -x 30.308555 -y 32.958090 -U 0.000000 -V 0.000000 -T 0.000000
n -t 1.000000 -s 14 -x 21.356850 -y 33.329771 -U 0.000000 -V 0.000000 -T 0.000000
n -t 1.000000 -s 13 -x 61.309896 -y 69.870281 -U 0.000000 -V 0.000000 -T 0.000000
n -t 1.000000 -s 19 -x 21.174967 -y 24.322345 -U 0.000000 -V 0.000000 -T 0.000000
n -t 1.000000 -s 5 -x 56.952299 -y 27.141766 -U 0.000000 -V 0.000000 -T 0.000000
n -t 1.000000 -s 12 -x 81.263110 -y 85.345011 -U 0.000000 -V 0.000000 -T 0.000000
n -t 1.000000 -s 9 -x 72.482962 -y 89.224081 -U 0.000000 -V 0.000000 -T 0.000000
n -t 1.000000 -s 8 -x 54.781543 -y 99.119686 -U 0.000000 -V 0.000000 -T 0.000000
n -t 1.000000 -s 6 -x 3.055283 -y 82.681314 -U 0.000000 -V 0.000000 -T 0.000000
n -t 1.000000 -s 12 -x 81.263110 -y 85.345011 -U 0.830185 -V 0.557488 -T 12.678600
n -t 1.000000 -s 6 -x 3.055283 -y 82.681314 -U 0.094880 -V -0.995489 -T 19.096901
n -t 1.000000 -s 9 -x 72.482962 -y 89.224081 -U 0.986629 -V 0.162981 -T 19.567360
n -t 1.000000 -s 7 -x 32.120651 -y 75.283124 -U -0.141896 -V -0.989882 -T 19.721227
n -t 1.000000 -s 17 -x 30.841736 -y 78.085136 -U -0.067908 -V -0.997692 -T 22.375341
n -t 1.000000 -s 3 -x 30.308555 -y 32.958090 -U -0.043211 -V 0.999066 -T 22.824675
n -t 1.000000 -s 14 -x 21.356850 -y 33.329771 -U 0.334626 -V 0.942351 -T 23.803952
n -t 1.000000 -s 15 -x 40.488213 -y 77.000552 -U -0.465337 -V -0.885134 -T 23.995369
n -t 1.000000 -s 19 -x 21.174967 -y 24.322345 -U 0.250859 -V 0.968024 -T 32.477620
n -t 1.000000 -s 13 -x 61.309896 -y 69.870281 -U -0.914953 -V -0.403560 -T 34.960934
n -t 1.000000 -s 8 -x 54.781543 -y 99.119686 -U 0.983973 -V -0.178317 -T 37.609923
n -t 1.000000 -s 5 -x 56.952299 -y 27.141766 -U -0.694558 -V 0.719436 -T 39.780700
n -t 1.000000 -s 10 -x 30.500820 -y 14.751970 -U -0.028726 -V 0.999587 -T 41.026407
n -t 1.000000 -s 7 -x 32.120651 -y 75.283124 -U -0.141896 -V -0.989882 -T 19.721227
n -t 1.000000 -s 12 -x 81.263110 -y 85.345011 -U 0.830185 -V 0.557488 -T 12.678600
n -t 1.000000 -s 6 -x 3.055283 -y 82.681314 -U 0.094880 -V -0.995489 -T 19.096901
n -t 2.000000 -s 7 -x 31.978755 -y 74.293242 -U 0.000000 -V 0.000000 -T 0.000000
n -t 2.000000 -s 17 -x 30.773829 -y 77.087445 -U 0.000000 -V 0.000000 -T 0.000000
n -t 2.000000 -s 3 -x 30.265344 -y 33.957156 -U 0.000000 -V 0.000000 -T 0.000000
n -t 2.000000 -s 14 -x 21.691476 -y 34.272122 -U 0.000000 -V 0.000000 -T 0.000000
n -t 2.000000 -s 15 -x 40.022876 -y 76.115419 -U 0.000000 -V 0.000000 -T 0.000000
n -t 2.000000 -s 19 -x 21.425826 -y 25.290368 -U 0.000000 -V 0.000000 -T 0.000000
n -t 2.000000 -s 13 -x 60.394943 -y 69.466721 -U 0.000000 -V 0.000000 -T 0.000000
n -t 2.000000 -s 5 -x 56.257741 -y 27.861203 -U 0.000000 -V 0.000000 -T 0.000000
n -t 2.000000 -s 10 -x 30.472094 -y 15.751557 -U 0.000000 -V 0.000000 -T 0.000000
n -t 2.000000 -s 12 -x 82.093295 -y 85.902499 -U 0.000000 -V 0.000000 -T 0.000000
n -t 2.000000 -s 9 -x 73.469591 -y 89.387062 -U 0.000000 -V 0.000000 -T 0.000000
n -t 2.000000 -s 8 -x 55.765516 -y 98.941368 -U 0.000000 -V 0.000000 -T 0.000000
n -t 2.000000 -s 6 -x 3.150163 -y 81.685825 -U 0.000000 -V 0.000000 -T 0.000000
n -t 2.000000 -s 12 -x 82.093295 -y 85.902499 -U 0.882978 -V 0.469414 -T 10.425607
n -t 2.000000 -s 9 -x 73.469591 -y 89.387062 -U 0.996890 -V 0.078802 -T 17.884901
n -t 2.000000 -s 3 -x 30.265344 -y 33.957156 -U -0.086287 -V 0.996270 -T 19.784445
n -t 2.000000 -s 6 -x 3.150163 -y 81.685825 -U 0.100701 -V -0.994917 -T 19.914729
n -t 2.000000 -s 14 -x 21.691476 -y 34.272122 -U 0.333736 -V 0.942667 -T 20.575345
n -t 2.000000 -s 7 -x 31.978755 -y 74.293242 -U -0.163607 -V -0.986526 -T 20.907140
n -t 2.000000 -s 17 -x 30.773829 -y 77.087445 -U -0.094185 -V -0.995555 -T 23.524204
n -t 2.000000 -s 15 -x 40.022876 -y 76.115419 -U -0.454842 -V -0.890572 -T 25.205826
n -t 2.000000 -s 19 -x 21.425826 -y 25.290368 -U 0.243758 -V 0.969836 -T 29.260044
n -t 2.000000 -s 13 -x 60.394943 -y 69.466721 -U -0.895768 -V -0.444523 -T 35.541289
n -t 2.000000 -s 8 -x 55.765516 -y 98.941368 -U 0.974721 -V -0.223425 -T 36.454899
n -t 2.000000 -s 5 -x 56.257741 -y 27.861203 -U -0.731665 -V 0.681665 -T 37.858226
n -t 2.000000 -s 10 -x 30.472094 -y 15.751557 -U -0.050412 -V 0.998728 -T 37.964527
n -t 2.000000 -s 3 -x 30.265344 -y 33.957156 -U -0.086287 -V 0.996270 -T 19.784445
n -t 2.000000 -s 12 -x 82.093295 -y 85.902499 -U 0.882978 -V 0.469414 -T 10.425607
n -t 2.000000 -s 6 -x 3.150163 -y 81.685825 -U 0.100701 -V -0.994917 -T 19.914729
n -t 3.000000 -s 3 -x 30.179058 -y 34.953426 -U 0.000000 -V 0.000000 -T 0.000000
n -t 3.000000 -s 14 -x 22.025212 -y 35.214788 -U 0.000000 -V 0.000000 -T 0.000000
n -t 3.000000 -s 7 -x 31.815148 -y 73.306716 -U 0.000000 -V 0.000000 -T 0.000000
n -t 3.000000 -s 17 -x 30.679644 -y 76.091890 -U 0.000000 -V 0.000000 -T 0.000000
n -t 3.000000 -s 15 -x 39.568034 -y 75.224847 -U 0.000000 -V 0.000000 -T 0.000000
n -t 3.000000 -s 19 -x 21.669585 -y 26.260204 -U 0.000000 -V 0.000000 -T 0.000000
n -t 3.000000 -s 13 -x 59.499175 -y 69.022198 -U 0.000000 -V 0.000000 -T 0.000000
n -t 3.000000 -s 5 -x 55.526076 -y 28.542867 -U 0.000000 -V 0.000000 -T 0.000000
n -t 3.000000 -s 10 -x 30.421681 -y 16.750286 -U 0.000000 -V 0.000000 -T 0.000000
n -t 3.000000 -s 12 -x 82.976272 -y 86.371914 -U 0.000000 -V 0.000000 -T 0.000000
n -t 3.000000 -s 9 -x 74.466482 -y 89.465864 -U 0.000000 -V 0.000000 -T 0.000000
n -t 3.000000 -s 8 -x 56.740237 -y 98.717943 -U 0.000000 -V 0.000000 -T 0.000000
n -t 3.000000 -s 6 -x 3.250864 -y 80.690909 -U 0.000000 -V 0.000000 -T 0.000000
n -t 3.000000 -s 12 -x 82.976272 -y 86.371914 -U 0.941348 -V 0.337439 -T 8.320822
n -t 3.000000 -s 9 -x 74.466482 -y 89.465864 -U 0.999847 -V -0.017509 -T 16.345082
n -t 3.000000 -s 3 -x 30.179058 -y 34.953426 -U -0.142036 -V 0.989862 -T 16.790987
n -t 3.000000 -s 14 -x 22.025212 -y 35.214788 -U 0.332565 -V 0.943080 -T 17.346761
n -t 3.000000 -s 6 -x 3.250864 -y 80.690909 -U 0.105780 -V -0.994390 -T 20.733137
n -t 3.000000 -s 7 -x 31.815148 -y 73.306716 -U -0.181935 -V -0.983311 -T 22.101397
n -t 3.000000 -s 17 -x 30.679644 -y 76.091890 -U -0.116884 -V -0.993146 -T 24.686927
n -t 3.000000 -s 19 -x 21.669585 -y 26.260204 -U 0.235159 -V 0.971957 -T 26.044335
n -t 3.000000 -s 15 -x 39.568034 -y 75.224847 -U -0.445655 -V -0.895205 -T 26.419288
n -t 3.000000 -s 10 -x 30.421681 -y 16.750286 -U -0.075239 -V 0.997166 -T 34.922879
n -t 3.000000 -s 8 -x 56.740237 -y 98.717943 -U 0.962971 -V -0.269604 -T 35.378850
n -t 3.000000 -s 5 -x 55.526076 -y 28.542867 -U -0.769293 -V 0.638896 -T 36.048603
n -t 3.000000 -s 13 -x 59.499175 -y 69.022198 -U -0.876096 -V -0.482136 -T 36.188989
n -t 3.000000 -s 11 -x 20.648250 -y 11.498000 -U 0.175539 -V 0.984472 -T 40.708276
n -t 3.000000 -s 3 -x 30.179058 -y 34.953426 -U -0.142036 -V 0.989862 -T 16.790987
n -t 3.000000 -s 12 -x 82.976272 -y 86.371914 -U 0.941348 -V 0.337439 -T 8.320822
n -t 3.000000 -s 6 -x 3.250864 -y 80.690909 -U 0.105780 -V -0.994390 -T 20.733137
n -t 4.000000 -s 3 -x 30.037022 -y 35.943288 -U 0.000000 -V 0.000000 -T 0.000000
n -t 4.000000 -s 14 -x 22.357777 -y 36.157869 -U 0.000000 -V 0.000000 -T 0.000000
n -t 4.000000 -s 7 -x 31.633213 -y 72.323406 -U 0.000000 -V 0.000000 -T 0.000000
n -t 4.000000 -s 17 -x 30.562760 -y 75.098744 -U 0.000000 -V 0.000000 -T 0.000000
n -t 4.000000 -s 19 -x 21.904743 -y 27.232161 -U 0.000000 -V 0.000000 -T 0.000000
n -t 4.000000 -s 15 -x 39.122379 -y 74.329642 -U 0.000000 -V 0.000000 -T 0.000000
n -t 4.000000 -s 10 -x 30.346443 -y 17.747451 -U 0.000000 -V 0.000000 -T 0.000000
n -t 4.000000 -s 5 -x 54.756783 -y 29.181763 -U 0.000000 -V 0.000000 -T 0.000000
n -t 4.000000 -s 13 -x 58.623079 -y 68.540062 -U 0.000000 -V 0.000000 -T 0.000000
n -t 4.000000 -s 11 -x 20.823789 -y 12.482472 -U 0.000000 -V 0.000000 -T 0.000000
n -t 4.000000 -s 12 -x 83.917620 -y 86.709352 -U 0.000000 -V 0.000000 -T 0.000000
n -t 4.000000 -s 9 -x 75.466328 -y 89.448355 -U 0.000000 -V 0.000000 -T 0.000000
n -t 4.000000 -s 8 -x 57.703209 -y 98.448340 -U 0.000000 -V 0.000000 -T 0.000000
n -t 4.000000 -s 6 -x 3.356644 -y 79.696519 -U 0.000000 -V 0.000000 -T 0.000000
n -t 4.000000 -s 12 -x 83.917620 -y 86.709352 -U 0.941348 -V 0.337439 -T 7.320822
n -t 4.000000 -s 3 -x 30.037022 -y 35.943288 -U -0.216840 -V 0.976207 -T 13.867195
n -t 4.000000 -s 14 -x 22.357777 -y 36.157869 -U 0.330940 -V 0.943652 -T 14.118214
n -t 4.000000 -s 9 -x 75.466328 -y 89.448355 -U 0.999847 -V -0.017509 -T 15.345082
n -t 4.000000 -s 6 -x 3.356644 -y 79.696519 -U 0.110235 -V -0.993906 -T 21.552008
n -t 4.000000 -s 19 -x 21.904743 -y 27.232161 -U 0.224488 -V 0.974477 -T 22.831107
n -t 4.000000 -s 7 -x 31.633213 -y 72.323406 -U -0.197543 -V -0.980294 -T 23.302045
n -t 4.000000 -s 17 -x 30.562760 -y 75.098744 -U -0.136605 -V -0.990626 -T 25.860629
n -t 4.000000 -s 15 -x 39.122379 -y 74.329642 -U -0.437570 -V -0.899184 -T 27.635154
n -t 4.000000 -s 10 -x 30.346443 -y 17.747451 -U -0.103942 -V 0.994583 -T 31.905917
n -t 4.000000 -s 5 -x 54.756783 -y 29.181763 -U -0.806879 -V 0.590717 -T 34.362937
n -t 4.000000 -s 8 -x 57.703209 -y 98.448340 -U 0.962971 -V -0.269604 -T 34.378850
n -t 4.000000 -s 13 -x 58.623079 -y 68.540062 -U -0.856250 -V -0.516561 -T 36.896935
n -t 4.000000 -s 11 -x 20.823789 -y 12.482472 -U 0.165435 -V 0.986221 -T 37.514999
n -t 4.000000 -s 3 -x 30.037022 -y 35.943288 -U -0.216840 -V 0.976207 -T 13.867195
n -t 4.000000 -s 12 -x 83.917620 -y 86.709352 -U 0.991227 -V 0.132168 -T 6.458277
n -t 4.000000 -s 6 -x 3.356644 -y 79.696519 -U 0.110235 -V -0.993906 -T 21.552008
n -t 5.000000 -s 3 -x 29.820182 -y 36.919495 -U 0.000000 -V 0.000000 -T 0.000000
n -t 5.000000 -s 14 -x 22.688717 -y 37.101520 -U 0.000000 -V 0.000000 -T 0.000000
n -t 5.000000 -s 19 -x 22.129232 -y 28.206638 -U 0.000000 -V 0.000000 -T 0.000000
n -t 5.000000 -s 7 -x 31.435671 -y 71.343112 -U 0.000000 -V 0.000000 -T 0.000000
n -t 5.000000 -s 17 -x 30.426155 -y 74.108119 -U 0.000000 -V 0.000000 -T 0.000000
n -t 5.000000 -s 15 -x 38.684809 -y 73.430458 -U 0.000000 -V 0.000000 -T 0.000000
n -t 5.000000 -s 10 -x 30.242500 -y 18.742035 -U 0.000000 -V 0.000000 -T 0.000000
n -t 5.000000 -s 5 -x 53.949904 -y 29.772480 -U 0.000000 -V 0.000000 -T 0.000000
n -t 5.000000 -s 13 -x 57.766828 -y 68.023501 -U 0.000000 -V 0.000000 -T 0.000000
n -t 5.000000 -s 11 -x 20.989223 -y 13.468693 -U 0.000000 -V 0.000000 -T 0.000000
n -t 5.000000 -s 12 -x 84.908847 -y 86.841520 -U 0.000000 -V 0.000000 -T 0.000000
n -t 5.000000 -s 9 -x 76.466175 -y 89.430846 -U 0.000000 -V 0.000000 -T 0.000000
n -t 5.000000 -s 8 -x 58.666180 -y 98.178736 -U 0.000000 -V 0.000000 -T 0.000000
n -t 5.000000 -s 6 -x 3.466879 -y 78.702614 -U 0.000000 -V 0.000000 -T 0.000000
n -t 5.000000 -s 12 -x 84.908847 -y 86.841520 -U 0.991227 -V 0.132168 -T 5.458277
n -t 5.000000 -s 14 -x 22.688717 -y 37.101520 -U 0.328500 -V 0.944504 -T 10.889727
n -t 5.000000 -s 3 -x 29.820182 -y 36.919495 -U -0.321519 -V 0.946903 -T 11.054368
n -t 5.000000 -s 9 -x 76.466175 -y 89.430846 -U 0.991031 -V -0.133628 -T 13.978431
n -t 5.000000 -s 19 -x 22.129232 -y 28.206638 -U 0.210830 -V 0.977523 -T 19.621306
n -t 5.000000 -s 6 -x 3.466879 -y 78.702614 -U 0.114162 -V -0.993462 -T 22.371252
n -t 5.000000 -s 7 -x 31.435671 -y 71.343112 -U -0.210941 -V -0.977499 -T 24.507655
n -t 5.000000 -s 17 -x 30.426155 -y 74.108119 -U -0.153834 -V -0.988097 -T 27.043112
n -t 5.000000 -s 15 -x 38.684809 -y 73.430458 -U -0.430417 -V -0.902630 -T 28.852961
n -t 5.000000 -s 10 -x 30.242500 -y 18.742035 -U -0.137502 -V 0.990501 -T 28.919570
n -t 5.000000 -s 5 -x 53.949904 -y 29.772480 -U -0.843697 -V 0.536819 -T 32.812606
n -t 5.000000 -s 8 -x 58.666180 -y 98.178736 -U 0.948100 -V -0.317974 -T 33.385799
n -t 5.000000 -s 11 -x 20.989223 -y 13.468693 -U 0.153724 -V 0.988114 -T 34.326225
n -t 5.000000 -s 13 -x 57.766828 -y 68.023501 -U -0.836484 -V -0.547991 -T 37.658618
n -t 5.000000 -s 14 -x 22.688717 -y 37.101520 -U 0.328500 -V 0.944504 -T 10.889727
n -t 5.000000 -s 12 -x 84.908847 -y 86.841520 -U 0.983846 -V -0.179019 -T 5.001370
n -t 5.000000 -s 6 -x 3.466879 -y 78.702614 -U 0.114162 -V -0.993462 -T 22.371252
n -t 6.000000 -s 14 -x 23.017217 -y 38.046024 -U 0.000000 -V 0.000000 -T 0.000000
n -t 6.000000 -s 3 -x 29.498663 -y 37.866398 -U 0.000000 -V 0.000000 -T 0.000000
n -t 6.000000 -s 19 -x 22.340062 -y 29.184161 -U 0.000000 -V 0.000000 -T 0.000000
n -t 6.000000 -s 7 -x 31.224729 -y 70.365613 -U 0.000000 -V 0.000000 -T 0.000000
n -t 6.000000 -s 17 -x 30.272320 -y 73.120022 -U 0.000000 -V 0.000000 -T 0.000000
n -t 6.000000 -s 15 -x 38.254391 -y 72.527828 -U 0.000000 -V 0.000000 -T 0.000000
n -t 6.000000 -s 10 -x 30.104998 -y 19.732536 -U 0.000000 -V 0.000000 -T 0.000000
n -t 6.000000 -s 5 -x 53.106207 -y 30.309299 -U 0.000000 -V 0.000000 -T 0.000000
n -t 6.000000 -s 11 -x 21.142948 -y 14.456807 -U 0.000000 -V 0.000000 -T 0.000000
n -t 6.000000 -s 13 -x 56.930344 -y 67.475510 -U 0.000000 -V 0.000000 -T 0.000000
n -t 6.000000 -s 12 -x 85.892693 -y 86.662501 -U 0.000000 -V 0.000000 -T 0.000000
n -t 6.000000 -s 9 -x 77.457207 -y 89.297218 -U 0.000000 -V 0.000000 -T 0.000000
n -t 6.000000 -s 8 -x 59.614279 -y 97.860762 -U 0.000000 -V 0.000000 -T 0.000000
n -t 6.000000 -s 6 -x 3.581041 -y 77.709152 -U 0.000000 -V 0.000000 -T 0.000000
n -t 6.000000 -s 12 -x 85.892693 -y 86.662501 -U 0.983846 -V -0.179019 -T 4.001370
n -t 6.000000 -s 14 -x 23.017217 -y 38.046024 -U 0.324316 -V 0.945949 -T 7.661359
n -t 6.000000 -s 3 -x 29.498663 -y 37.866398 -U -0.473884 -V 0.880587 -T 8.434006
n -t 6.000000 -s 9 -x 77.457207 -y 89.297218 -U 0.965222 -V -0.261432 -T 12.818003
n -t 6.000000 -s 19 -x 22.340062 -y 29.184161 -U 0.192603 -V 0.981277 -T 16.416485
n -t 6.000000 -s 6 -x 3.581041 -y 77.709152 -U 0.117642 -V -0.993056 -T 23.190798
n -t 6.000000 -s 7 -x 31.224729 -y 70.365613 -U -0.222529 -V -0.974926 -T 25.717165
n -t 6.000000 -s 10 -x 30.104998 -y 19.732536 -U -0.177233 -V 0.984169 -T 25.971903
n -t 6.000000 -s 17 -x 30.272320 -y 73.120022 -U -0.168967 -V -0.985622 -T 28.232685
n -t 6.000000 -s 15 -x 38.254391 -y 72.527828 -U -0.424060 -V -0.905634 -T 30.072350
n -t 6.000000 -s 11 -x 21.142948 -y 14.456807 -U 0.139966 -V 0.990156 -T 31.143033
n -t 6.000000 -s 5 -x 53.106207 -y 30.309299 -U -0.878870 -V 0.477062 -T 31.408855
n -t 6.000000 -s 8 -x 59.614279 -y 97.860762 -U 0.930286 -V -0.366835 -T 32.479412
n -t 6.000000 -s 13 -x 56.930344 -y 67.475510 -U 0.871972 -V 0.489555 -T 37.729498
n -t 6.000000 -s 18 -x 46.469200 -y 9.504549 -U -0.505498 -V 0.862828 -T 41.478426
n -t 6.000000 -s 14 -x 23.017217 -y 38.046024 -U 0.324316 -V 0.945949 -T 7.661359
n -t 6.000000 -s 12 -x 85.892693 -y 86.662501 -U 0.828134 -V -0.560530 -T 4.162263
n -t 6.000000 -s 6 -x 3.581041 -y 77.709152 -U 0.117642 -V -0.993056 -T 23.190798
n -t 7.000000 -s 14 -x 23.341534 -y 38.991973 -U 0.000000 -V 0.000000 -T 0.000000
n -t 7.000000 -s 3 -x 29.024779 -y 38.746986 -U 0.000000 -V 0.000000 -T 0.000000
n -t 7.000000 -s 19 -x 22.532665 -y 30.165438 -U 0.000000 -V 0.000000 -T 0.000000
n -t 7.000000 -s 7 -x 31.002201 -y 69.390687 -U 0.000000 -V 0.000000 -T 0.000000
n -t 7.000000 -s 10 -x 29.927765 -y 20.716705 -U 0.000000 -V 0.000000 -T 0.000000
n -t 7.000000 -s 17 -x 30.103353 -y 72.134401 -U 0.000000 -V 0.000000 -T 0.000000
n -t 7.000000 -s 15 -x 37.830332 -y 71.622193 -U 0.000000 -V 0.000000 -T 0.000000
n -t 7.000000 -s 11 -x 21.282914 -y 15.446963 -U 0.000000 -V 0.000000 -T 0.000000
n -t 7.000000 -s 5 -x 52.227337 -y 30.786362 -U 0.000000 -V 0.000000 -T 0.000000
n -t 7.000000 -s 18 -x 45.963702 -y 10.367377 -U 0.000000 -V 0.000000 -T 0.000000
n -t 7.000000 -s 12 -x 86.720827 -y 86.101971 -U 0.000000 -V 0.000000 -T 0.000000
n -t 7.000000 -s 9 -x 78.422429 -y 89.035785 -U 0.000000 -V 0.000000 -T 0.000000
n -t 7.000000 -s 8 -x 60.544566 -y 97.493927 -U 0.000000 -V 0.000000 -T 0.000000
n -t 7.000000 -s 13 -x 57.802317 -y 67.965065 -U 0.000000 -V 0.000000 -T 0.000000
n -t 7.000000 -s 6 -x 3.698683 -y 76.716095 -U 0.000000 -V 0.000000 -T 0.000000
n -t 7.000000 -s 12 -x 86.720827 -y 86.101971 -U 0.828134 -V -0.560530 -T 3.162263
n -t 7.000000 -s 14 -x 23.341534 -y 38.991973 -U 0.324316 -V 0.945949 -T 6.661359
n -t 7.000000 -s 3 -x 29.024779 -y 38.746986 -U -0.473884 -V 0.880587 -T 7.434006
n -t 7.000000 -s 9 -x 78.422429 -y 89.035785 -U 0.918303 -V -0.395877 -T 11.888421
n -t 7.000000 -s 19 -x 22.532665 -y 30.165438 -U 0.192603 -V 0.981277 -T 15.416485
n -t 7.000000 -s 6 -x 3.698683 -y 76.716095 -U 0.120737 -V -0.992684 -T 24.010593
n -t 7.000000 -s 7 -x 31.002201 -y 69.390687 -U -0.222529 -V -0.974926 -T 24.717165
n -t 7.000000 -s 10 -x 29.927765 -y 20.716705 -U -0.177233 -V 0.984169 -T 24.971903
n -t 7.000000 -s 17 -x 30.103353 -y 72.134401 -U -0.168967 -V -0.985622 -T 27.232685
n -t 7.000000 -s 15 -x 37.830332 -y 71.622193 -U -0.424060 -V -0.905634 -T 29.072350
n -t 7.000000 -s 11 -x 21.282914 -y 15.446963 -U 0.139966 -V 0.990156 -T 30.143033
n -t 7.000000 -s 5 -x 52.227337 -y 30.786362 -U -0.878870 -V 0.477062 -T 30.408855
n -t 7.000000 -s 8 -x 60.544566 -y 97.493927 -U 0.909462 -V -0.415787 -T 31.661623
n -t 7.000000 -s 13 -x 57.802317 -y 67.965065 -U 0.887620 -V 0.460577 -T 35.530171
n -t 7.000000 -s 18 -x 45.963702 -y 10.367377 -U -0.505498 -V 0.862828 -T 40.478426
n -t 7.000000 -s 14 -x 23.341534 -y 38.991973 -U 0.314961 -V 0.949105 -T 4.433304
n -t 7.000000 -s 12 -x 86.720827 -y 86.101971 -U 0.531912 -V -0.846800 -T 4.002472
n -t 7.000000 -s 6 -x 3.698683 -y 76.716095 -U 0.120737 -V -0.992684 -T 24.010593
n -t 8.000000 -s 14 -x 23.656494 -y 39.941078 -U 0.000000 -V 0.000000 -T 0.000000
n -t 8.000000 -s 3 -x 28.550895 -y 39.627573 -U 0.000000 -V 0.000000 -T 0.000000
n -t 8.000000 -s 19 -x 22.725267 -y 31.146714 -U 0.000000 -V 0.000000 -T 0.000000
n -t 8.000000 -s 7 -x 30.779672 -y 68.415761 -U 0.000000 -V 0.000000 -T 0.000000
n -t 8.000000 -s 10 -x 29.750532 -y 21.700874 -U 0.000000 -V 0.000000 -T 0.000000
n -t 8.000000 -s 17 -x 29.934386 -y 71.148779 -U 0.000000 -V 0.000000 -T 0.000000
n -t 8.000000 -s 15 -x 37.406272 -y 70.716559 -U 0.000000 -V 0.000000 -T 0.000000
n -t 8.000000 -s 11 -x 21.422880 -y 16.437120 -U 0.000000 -V 0.000000 -T 0.000000
n -t 8.000000 -s 5 -x 51.348468 -y 31.263424 -U 0.000000 -V 0.000000 -T 0.000000
n -t 8.000000 -s 18 -x 45.458203 -y 11.230204 -U 0.000000 -V 0.000000 -T 0.000000
n -t 8.000000 -s 12 -x 87.252739 -y 85.255172 -U 0.000000 -V 0.000000 -T 0.000000
n -t 8.000000 -s 9 -x 79.340732 -y 88.639908 -U 0.000000 -V 0.000000 -T 0.000000
n -t 8.000000 -s 8 -x 61.454027 -y 97.078140 -U 0.000000 -V 0.000000 -T 0.000000
n -t 8.000000 -s 13 -x 58.689937 -y 68.425642 -U 0.000000 -V 0.000000 -T 0.000000
n -t 8.000000 -s 6 -x 3.819420 -y 75.723411 -U 0.000000 -V 0.000000 -T 0.000000
n -t 8.000000 -s 12 -x 87.252739 -y 85.255172 -U 0.531912 -V -0.846800 -T 3.002472
n -t 8.000000 -s 14 -x 23.656494 -y 39.941078 -U 0.314961 -V 0.949105 -T 3.433304
n -t 8.000000 -s 3 -x 28.550895 -y 39.627573 -U -0.729791 -V 0.683670 -T 5.224844
n -t 8.000000 -s 9 -x 79.340732 -y 88.639908 -U 0.848637 -V -0.528976 -T 11.205097
n -t 8.000000 -s 19 -x 22.725267 -y 31.146714 -U 0.164698 -V 0.986344 -T 12.219802
n -t 8.000000 -s 10 -x 29.750532 -y 21.700874 -U -0.227071 -V 0.973878 -T 22.075417
n -t 8.000000 -s 6 -x 3.819420 -y 75.723411 -U 0.123503 -V -0.992344 -T 24.830591
n -t 8.000000 -s 7 -x 30.779672 -y 68.415761 -U -0.233007 -V -0.972475 -T 25.929833
n -t 8.000000 -s 11 -x 21.422880 -y 16.437120 -U 0.122927 -V 0.992416 -T 26.967048
n -t 8.000000 -s 17 -x 29.934386 -y 71.148779 -U -0.182796 -V -0.983151 -T 28.428124
n -t 8.000000 -s 5 -x 51.348468 -y 31.263424 -U -0.912416 -V 0.409265 -T 29.165019
n -t 8.000000 -s 15 -x 37.406272 -y 70.716559 -U -0.418195 -V -0.908357 -T 30.293062
n -t 8.000000 -s 8 -x 61.454027 -y 97.078140 -U 0.885628 -V -0.464395 -T 30.933707
n -t 8.000000 -s 13 -x 58.689937 -y 68.425642 -U 0.903729 -V 0.428106 -T 33.372685
n -t 8.000000 -s 18 -x 45.458203 -y 11.230204 -U -0.543885 -V 0.839160 -T 38.096956
n -t 8.000000 -s 14 -x 23.656494 -y 39.941078 -U 0.262790 -V 0.964853 -T 1.207366
n -t 8.000000 -s 12 -x 87.252739 -y 85.255172 -U 0.257251 -V -0.966345 -T 4.304098
n -t 8.000000 -s 6 -x 3.819420 -y 75.723411 -U 0.123503 -V -0.992344 -T 24.830591
n -t 9.000000 -s 14 -x 23.919285 -y 40.905931 -U 0.000000 -V 0.000000 -T 0.000000
n -t 9.000000 -s 3 -x 27.821104 -y 40.311243 -U 0.000000 -V 0.000000 -T 0.000000
n -t 9.000000 -s 19 -x 22.889966 -y 32.133058 -U 0.000000 -V 0.000000 -T 0.000000
n -t 9.000000 -s 10 -x 29.523461 -y 22.674752 -U 0.000000 -V 0.000000 -T 0.000000
n -t 9.000000 -s 7 -x 30.546665 -y 67.443285 -U 0.000000 -V 0.000000 -T 0.000000
n -t 9.000000 -s 11 -x 21.545807 -y 17.429535 -U 0.000000 -V 0.000000 -T 0.000000
n -t 9.000000 -s 17 -x 29.751590 -y 70.165628 -U 0.000000 -V 0.000000 -T 0.000000
n -t 9.000000 -s 5 -x 50.436052 -y 31.672689 -U 0.000000 -V 0.000000 -T 0.000000
n -t 9.000000 -s 15 -x 36.988076 -y 69.808202 -U 0.000000 -V 0.000000 -T 0.000000
n -t 9.000000 -s 18 -x 44.914318 -y 12.069364 -U 0.000000 -V 0.000000 -T 0.000000
n -t 9.000000 -s 12 -x 87.509990 -y 84.288827 -U 0.000000 -V 0.000000 -T 0.000000
n -t 9.000000 -s 9 -x 80.189369 -y 88.110932 -U 0.000000 -V 0.000000 -T 0.000000
n -t 9.000000 -s 8 -x 62.339656 -y 96.613745 -U 0.000000 -V 0.000000 -T 0.000000
n -t 9.000000 -s 13 -x 59.593665 -y 68.853747 -U 0.000000 -V 0.000000 -T 0.000000
n -t 9.000000 -s 6 -x 3.942923 -y 74.731067 -U 0.000000 -V 0.000000 -T 0.000000
n -t 9.000000 -s 14 -x 23.919285 -y 40.905931 -U 0.262790 -V 0.964853 -T 0.207366
n -t 9.000000 -s 12 -x 87.509990 -y 84.288827 -U 0.257251 -V -0.966345 -T 3.304098
n -t 9.000000 -s 3 -x 27.821104 -y 40.311243 -U -0.979323 -V 0.202305 -T 3.928558
n -t 9.000000 -s 19 -x 22.889966 -y 32.133058 -U 0.119915 -V 0.992784 -T 9.038168
n -t 9.000000 -s 9 -x 80.189369 -y 88.110932 -U 0.758723 -V -0.651414 -T 10.768891
n -t 9.000000 -s 10 -x 29.523461 -y 22.674752 -U -0.288316 -V 0.957535 -T 19.248641
n -t 9.000000 -s 11 -x 21.545807 -y 17.429535 -U 0.102013 -V 0.994783 -T 23.800639
n -t 9.000000 -s 6 -x 3.942923 -y 74.731067 -U 0.125983 -V -0.992032 -T 25.650760
n -t 9.000000 -s 7 -x 30.546665 -y 67.443285 -U -0.242139 -V -0.970242 -T 27.145073
n -t 9.000000 -s 5 -x 50.436052 -y 31.672689 -U -0.941939 -V 0.335784 -T 28.093406
n -t 9.000000 -s 17 -x 29.751590 -y 70.165628 -U -0.195009 -V -0.980801 -T 29.628442
n -t 9.000000 -s 8 -x 62.339656 -y 96.613745 -U 0.858864 -V -0.512203 -T 30.296195
n -t 9.000000 -s 13 -x 59.593665 -y 68.853747 -U 0.920141 -V 0.391588 -T 31.262939
n -t 9.000000 -s 15 -x 36.988076 -y 69.808202 -U -0.412957 -V -0.910750 -T 31.514883
n -t 9.000000 -s 18 -x 44.914318 -y 12.069364 -U -0.584933 -V 0.811082 -T 35.799902
n -t 9.000000 -s 14 -x 23.919285 -y 40.905931 -U -0.350904 -V -0.936411 -T 2.022141
n -t 9.000000 -s 12 -x 87.509990 -y 84.288827 -U 0.074675 -V -0.997208 -T 4.823115
n -t 9.000000 -s 6 -x 3.942923 -y 74.731067 -U 0.125983 -V -0.992032 -T 25.650760
n -t 10.000000 -s 14 -x 23.568380 -y 39.969519 -U 0.000000 -V 0.000000 -T 0.000000
n -t 10.000000 -s 3 -x 26.841781 -y 40.513548 -U 0.000000 -V 0.000000 -T 0.000000
n -t 10.000000 -s 19 -x 23.009881 -y 33.125843 -U 0.000000 -V 0.000000 -T 0.000000
n -t 10.000000 -s 10 -x 29.235146 -y 23.632288 -U 0.000000 -V 0.000000 -T 0.000000
n -t 10.000000 -s 11 -x 21.647820 -y 18.424318 -U 0.000000 -V 0.000000 -T 0.000000
n -t 10.000000 -s 7 -x 30.304526 -y 66.473044 -U 0.000000 -V 0.000000 -T 0.000000
n -t 10.000000 -s 5 -x 49.494113 -y 32.008473 -U 0.000000 -V 0.000000 -T 0.000000
n -t 10.000000 -s 17 -x 29.556581 -y 69.184827 -U 0.000000 -V 0.000000 -T 0.000000
n -t 10.000000 -s 15 -x 36.575119 -y 68.897452 -U 0.000000 -V 0.000000 -T 0.000000
n -t 10.000000 -s 18 -x 44.329386 -y 12.880446 -U 0.000000 -V 0.000000 -T 0.000000
n -t 10.000000 -s 12 -x 87.584664 -y 83.291619 -U 0.000000 -V 0.000000 -T 0.000000
n -t 10.000000 -s 9 -x 80.948091 -y 87.459518 -U 0.000000 -V 0.000000 -T 0.000000
n -t 10.000000 -s 8 -x 63.198520 -y 96.101542 -U 0.000000 -V 0.000000 -T 0.000000
n -t 10.000000 -s 13 -x 60.513806 -y 69.245335 -U 0.000000 -V 0.000000 -T 0.000000
n -t 10.000000 -s 6 -x 4.068906 -y 73.739034 -U 0.000000 -V 0.000000 -T 0.000000
n -t 10.000000 -s 14 -x 23.568380 -y 39.969519 -U -0.350904 -V -0.936411 -T 1.022141
n -t 10.000000 -s 12 -x 87.584664 -y 83.291619 -U 0.074675 -V -0.997208 -T 3.823115
n -t 10.000000 -s 3 -x 26.841781 -y 40.513548 -U -0.924174 -V -0.381971 -T 3.930074
n -t 10.000000 -s 19 -x 23.009881 -y 33.125843 -U 0.033927 -V 0.999424 -T 5.889923
n -t 10.000000 -s 9 -x 80.948091 -y 87.459518 -U 0.655242 -V -0.755419 -T 10.564127
n -t 10.000000 -s 10 -x 29.235146 -y 23.632288 -U -0.364774 -V 0.931096 -T 16.518262
n -t 10.000000 -s 11 -x 21.647820 -y 18.424318 -U 0.075646 -V 0.997135 -T 20.647217
n -t 10.000000 -s 6 -x 4.068906 -y 73.739034 -U 0.128215 -V -0.991746 -T 26.471069
n -t 10.000000 -s 5 -x 49.494113 -y 32.008473 -U -0.966283 -V 0.257482 -T 27.201556
n -t 10.000000 -s 7 -x 30.304526 -y 66.473044 -U -0.250149 -V -0.968207 -T 28.362384
n -t 10.000000 -s 13 -x 60.513806 -y 69.245335 -U 0.936608 -V 0.350379 -T 29.207898
n -t 10.000000 -s 8 -x 63.198520 -y 96.101542 -U 0.829331 -V -0.558757 -T 29.748823
n -t 10.000000 -s 17 -x 29.556581 -y 69.184827 -U -0.205848 -V -0.978584 -T 30.832769
n -t 10.000000 -s 15 -x 36.575119 -y 68.897452 -U -0.408258 -V -0.912866 -T 32.737625
n -t 10.000000 -s 18 -x 44.329386 -y 12.880446 -U -0.628573 -V 0.777750 -T 33.599383
n -t 10.000000 -s 14 -x 23.568380 -y 39.969519 -U -0.345373 -V -0.938465 -T 3.250816
n -t 10.000000 -s 12 -x 87.584664 -y 83.291619 -U -0.037608 -V -0.999293 -T 5.433034
n -t 10.000000 -s 6 -x 4.068906 -y 73.739034 -U 0.128215 -V -0.991746 -T 26.471069
n -t 11.000000 -s 14 -x 23.223007 -y 39.031054 -U 0.000000 -V 0.000000 -T 0.000000
n -t 11.000000 -s 3 -x 25.917607 -y 40.131577 -U 0.000000 -V 0.000000 -T 0.000000
n -t 11.000000 -s 19 -x 23.043808 -y 34.125267 -U 0.000000 -V 0.000000 -T 0.000000
n -t 11.000000 -s 10 -x 28.870371 -y 24.563384 -U 0.000000 -V 0.000000 -T 0.000000
n -t 11.000000 -s 11 -x 21.723466 -y 19.421453 -U 0.000000 -V 0.000000 -T 0.000000