n -t * -s 0  -x 15.87851 -y 57.839440000000003 -Z 0 -z 1  -v circle -c black
n -t * -s 1  -x 16.160879999999999 -y 57.148760000000003 -Z 0 -z 1  -v circle -c black
n -t * -s 2  -x 85.028329999999997 -y 0.8201136 -Z 0 -z 1  -v circle -c black
n -t * -s 3  -x 59.36092 -y 23.811419999999998 -Z 0 -z 1  -v circle -c black
n -t * -s 4  -x 83.143619999999999 -y 62.49409 -Z 0 -z 1  -v circle -c black
n -t * -s 5  -x 15.68051 -y 80.097899999999996 -Z 0 -z 1  -v circle -c black
n -t * -s 6  -x 41.03257 -y 36.88758 -Z 0 -z 1  -v circle -c black
n -t * -s 7  -x 5.30002 -y 58.084949999999999 -Z 0 -z 1  -v circle -c black
n -t * -s 8  -x 75.650120000000001 -y 22.82199 -Z 0 -z 1  -v circle -c black
n -t * -s 9  -x 51.904910000000001 -y 45.942329999999998 -Z 0 -z 1  -v circle -c black
n -t * -s 10  -x 65.859260000000006 -y 51.22719 -Z 0 -z 2  -v circle -c black
V -t * -v 1.0a5 -a 0
W -t * -x 100 -y 100
A -t * -n 1 -p 0 -o 0x7fffffff -c 30 -a 1
A -t * -h 1 -m 1073741823 -s 0
n -t 0 -s 10 -S COLOR -c red -o black -i red -I black
n -t 0.000000 -s 10 -x 65.859260 -y 51.227190 -U -0.222116 -V 2.616187 -T 14.538544
n -t 20.000000 -s 10 -x 62.630020 -y 89.262740 -U -0.357675 -V -2.517314 -T 7.731496
n -t 30.000000 -s 10 -x 59.864660 -y 69.800140 -U -1.040267 -V -1.479357 -T 36.468778
n -t 79.000000 -s 10 -x 21.927390 -y 15.849780 -U 0.694776 -V 0.846041 -T 55.673430
