n -t * -s 0  -x 57.026879999999998 -y 48.057670000000002 -Z 0 -z 1  -v circle -c black
n -t * -s 1  -x 0.28385450000000001 -y 66.14631 -Z 0 -z 1  -v circle -c black
n -t * -s 2  -x 45.676290000000002 -y 92.236760000000004 -Z 0 -z 1  -v circle -c black
n -t * -s 3  -x 48.252310000000001 -y 95.286360000000002 -Z 0 -z 1  -v circle -c black
n -t * -s 4  -x 67.064629999999994 -y 16.322410000000001 -Z 0 -z 1  -v circle -c black
n -t * -s 5  -x 37.867510000000003 -y 54.898400000000002 -Z 0 -z 1  -v circle -c black
n -t * -s 6  -x 70.29316 -y 39.411819999999999 -Z 0 -z 1  -v circle -c black
n -t * -s 7  -x 87.962350000000001 -y 43.455469999999998 -Z 0 -z 1  -v circle -c black
n -t * -s 8  -x 64.415220000000005 -y 35.488219999999998 -Z 0 -z 1  -v circle -c black
n -t * -s 9  -x 23.58943 -y 51.89132 -Z 0 -z 1  -v circle -c black
n -t * -s 10  -x 26.874669999999998 -y 31.26689 -Z 0 -z 1  -v circle -c black
n -t * -s 11  -x 88.895780000000002 -y 98.212299999999999 -Z 0 -z 1  -v circle -c black
n -t * -s 12  -x 7.9474640000000001 -y 27.749860000000002 -Z 0 -z 1  -v circle -c black
n -t * -s 13  -x 60.725450000000002 -y 22.708379999999998 -Z 0 -z 1  -v circle -c black
n -t * -s 14  -x 80.03331 -y 57.253610000000002 -Z 0 -z 1  -v circle -c black
n -t * -s 15  -x 96.322900000000004 -y 0.64000869999999999 -Z 0 -z 1  -v circle -c black
n -t * -s 16  -x 64.582849999999993 -y 70.081379999999996 -Z 0 -z 1  -v circle -c black
n -t * -s 17  -x 89.138350000000003 -y 37.864629999999998 -Z 0 -z 1  -v circle -c black
n -t * -s 18  -x 54.782910000000001 -y 57.977899999999998 -Z 0 -z 1  -v circle -c black
n -t * -s 19  -x 28.00442 -y 60.204650000000001 -Z 0 -z 1  -v circle -c black
n -t * -s 20  -x 30.28538 -y 61.281999999999996 -Z 0 -z 2  -v circle -c black
V -t * -v 1.0a5 -a 0
W -t * -x 100 -y 100
A -t * -n 1 -p 0 -o 0x7fffffff -c 30 -a 1
A -t * -h 1 -m 1073741823 -s 0
n -t 0 -s 20 -S COLOR -c red -o black -i red -I black
n -t 0.000000 -s 20 -x 30.285380 -y 61.282000 -U 0.122715 -V -0.839298 -T 70.913006
n -t 0.000000 -s 5 -x 37.867510 -y 54.898400 -U -0.764978 -V 0.644056 -T 4.911561
n -t 0.000000 -s 9 -x 23.589430 -y 51.891320 -U 0.580568 -V 0.814212 -T 6.533456
n -t 0.000000 -s 18 -x 54.782910 -y 57.977900 -U -0.991027 -V 0.133665 -T 19.719346
n -t 0.000000 -s 0 -x 57.026880 -y 48.057670 -U -0.896382 -V 0.443283 -T 24.832712
n -t 0.000000 -s 10 -x 26.874670 -y 31.266890 -U 0.112906 -V 0.993606 -T 25.208273
n -t 0.000000 -s 1 -x 0.283855 -y 66.146310 -U 0.987110 -V -0.160045 -T 25.393306
n -t 0.000000 -s 2 -x 45.676290 -y 92.236760 -U -0.445211 -V -0.895425 -T 29.569890
n -t 0.000000 -s 16 -x 64.582850 -y 70.081380 -U -0.968629 -V -0.248512 -T 30.408269
n -t 0.000000 -s 3 -x 48.252310 -y 95.286360 -U -0.467169 -V -0.884168 -T 33.459161
n -t 0.000000 -s 12 -x 7.947464 -y 27.749860 -U 0.554411 -V 0.832243 -T 35.291276
n -t 0.000000 -s 5 -x 37.867510 -y 54.898400 -U 0.000000 -V 0.000000 -T 0.000000
n -t 0.000000 -s 9 -x 23.589430 -y 51.891320 -U 0.000000 -V 0.000000 -T 0.000000
n -t 0.000000 -s 18 -x 54.782910 -y 57.977900 -U 0.000000 -V 0.000000 -T 0.000000
n -t 0.000000 -s 0 -x 57.026880 -y 48.057670 -U 0.000000 -V 0.000000 -T 0.000000
n -t 0.000000 -s 10 -x 26.874670 -y 31.266890 -U 0.000000 -V 0.000000 -T 0.000000
n -t 0.000000 -s 1 -x 0.283855 -y 66.146310 -U 0.000000 -V 0.000000 -T 0.000000
n -t 0.000000 -s 2 -x 45.676290 -y 92.236760 -U 0.000000 -V 0.000000 -T 0.000000
n -t 0.000000 -s 16 -x 64.582850 -y 70.081380 -U 0.000000 -V 0.000000 -T 0.000000
n -t 0.000000 -s 3 -x 48.252310 -y 95.286360 -U 0.000000 -V 0.000000 -T 0.000000
n -t 0.000000 -s 12 -x 7.947464 -y 27.749860 -U 0.000000 -V 0.000000 -T 0.000000
n -t 1.000000 -s 5 -x 37.867510 -y 54.898400 -U 0.000000 -V 0.000000 -T 0.000000
n -t 1.000000 -s 9 -x 23.589430 -y 51.891320 -U 0.000000 -V 0.000000 -T 0.000000
n -t 1.000000 -s 18 -x 54.782910 -y 57.977900 -U 0.000000 -V 0.000000 -T 0.000000
n -t 1.000000 -s 0 -x 57.026880 -y 48.057670 -U 0.000000 -V 0.000000 -T 0.000000
n -t 1.000000 -s 10 -x 26.874670 -y 31.266890 -U 0.000000 -V 0.000000 -T 0.000000
n -t 1.000000 -s 1 -x 0.283855 -y 66.146310 -U 0.000000 -V 0.000000 -T 0.000000
n -t 1.000000 -s 2 -x 45.676290 -y 92.236760 -U 0.000000 -V 0.000000 -T 0.000000
n -t 1.000000 -s 16 -x 64.582850 -y 70.081380 -U 0.000000 -V 0.000000 -T 0.000000
n -t 1.000000 -s 3 -x 48.252310 -y 95.286360 -U 0.000000 -V 0.000000 -T 0.000000
n -t 1.000000 -s 12 -x 7.947464 -y 27.749860 -U 0.000000 -V 0.000000 -T 0.000000
n -t 2.000000 -s 5 -x 37.867510 -y 54.898400 -U 0.000000 -V 0.000000 -T 0.000000
n -t 2.000000 -s 9 -x 23.589430 -y 51.891320 -U 0.000000 -V 0.000000 -T 0.000000
n -t 2.000000 -s 18 -x 54.782910 -y 57.977900 -U 0.000000 -V 0.000000 -T 0.000000
n -t 2.000000 -s 0 -x 57.026880 -y 48.057670 -U 0.000000 -V 0.000000 -T 0.000000
n -t 2.000000 -s 10 -x 26.874670 -y 31.266890 -U 0.000000 -V 0.000000 -T 0.000000
n -t 2.000000 -s 1 -x 0.283855 -y 66.146310 -U 0.000000 -V 0.000000 -T 0.000000
n -t 2.000000 -s 2 -x 45.676290 -y 92.236760 -U 0.000000 -V 0.000000 -T 0.000000
n -t 2.000000 -s 16 -x 64.582850 -y 70.081380 -U 0.000000 -V 0.000000 -T 0.000000
n -t 2.000000 -s 3 -x 48.252310 -y 95.286360 -U 0.000000 -V 0.000000 -T 0.000000
n -t 2.000000 -s 12 -x 7.947464 -y 27.749860 -U 0.000000 -V 0.000000 -T 0.000000
n -t 3.000000 -s 5 -x 37.867510 -y 54.898400 -U 0.000000 -V 0.000000 -T 0.000000
n -t 3.000000 -s 9 -x 23.589430 -y 51.891320 -U 0.000000 -V 0.000000 -T 0.000000
n -t 3.000000 -s 18 -x 54.782910 -y 57.977900 -U 0.000000 -V 0.000000 -T 0.000000
n -t 3.000000 -s 0 -x 57.026880 -y 48.057670 -U 0.000000 -V 0.000000 -T 0.000000
n -t 3.000000 -s 10 -x 26.874670 -y 31.266890 -U 0.000000 -V 0.000000 -T 0.000000
n -t 3.000000 -s 1 -x 0.283855 -y 66.146310 -U 0.000000 -V 0.000000 -T 0.000000
n -t 3.000000 -s 2 -x 45.676290 -y 92.236760 -U 0.000000 -V 0.000000 -T 0.000000
n -t 3.000000 -s 16 -x 64.582850 -y 70.081380 -U 0.000000 -V 0.000000 -T 0.000000
n -t 3.000000 -s 3 -x 48.252310 -y 95.286360 -U 0.000000 -V 0.000000 -T 0.000000
n -t 3.000000 -s 12 -x 7.947464 -y 27.749860 -U 0.000000 -V 0.000000 -T 0.000000
n -t 4.000000 -s 5 -x 37.867510 -y 54.898400 -U 0.000000 -V 0.000000 -T 0.000000
n -t 4.000000 -s 9 -x 23.589430 -y 51.891320 -U 0.000000 -V 0.000000 -T 0.000000
n -t 4.000000 -s 18 -x 54.782910 -y 57.977900 -U 0.000000 -V 0.000000 -T 0.000000
n -t 4.000000 -s 0 -x 57.026880 -y 48.057670 -U 0.000000 -V 0.000000 -T 0.000000
n -t 4.000000 -s 10 -x 26.874670 -y 31.266890 -U 0.000000 -V 0.000000 -T 0.000000
n -t 4.000000 -s 1 -x 0.283855 -y 66.146310 -U 0.000000 -V 0.000000 -T 0.000000
n -t 4.000000 -s 2 -x 45.676290 -y 92.236760 -U 0.000000 -V 0.000000 -T 0.000000
n -t 4.000000 -s 16 -x 64.582850 -y 70.081380 -U 0.000000 -V 0.000000 -T 0.000000
n -t 4.000000 -s 3 -x 48.252310 -y 95.286360 -U 0.000000 -V 0.000000 -T 0.000000
n -t 4.000000 -s 12 -x 7.947464 -y 27.749860 -U 0.000000 -V 0.000000 -T 0.000000
n -t 5.000000 -s 5 -x 37.867510 -y 54.898400 -U 0.000000 -V 0.000000 -T 0.000000
n -t 5.000000 -s 9 -x 23.589430 -y 51.891320 -U 0.000000 -V 0.000000 -T 0.000000
n -t 5.000000 -s 18 -x 54.782910 -y 57.977900 -U 0.000000 -V 0.000000 -T 0.000000
n -t 5.000000 -s 0 -x 57.026880 -y 48.057670 -U 0.000000 -V 0.000000 -T 0.000000
n -t 5.000000 -s 10 -x 26.874670 -y 31.266890 -U 0.000000 -V 0.000000 -T 0.000000
n -t 5.000000 -s 1 -x 0.283855 -y 66.146310 -U 0.000000 -V 0.000000 -T 0.000000
n -t 5.000000 -s 2 -x 45.676290 -y 92.236760 -U 0.000000 -V 0.000000 -T 0.000000
n -t 5.000000 -s 16 -x 64.582850 -y 70.081380 -U 0.000000 -V 0.000000 -T 0.000000
n -t 5.000000 -s 3 -x 48.252310 -y 95.286360 -U 0.000000 -V 0.000000 -T 0.000000
n -t 5.000000 -s 12 -x 7.947464 -y 27.749860 -U 0.000000 -V 0.000000 -T 0.000000
n -t 6.000000 -s 5 -x 37.867510 -y 54.898400 -U 0.000000 -V 0.000000 -T 0.000000
n -t 6.000000 -s 9 -x 23.589430 -y 51.891320 -U 0.000000 -V 0.000000 -T 0.000000
n -t 6.000000 -s 18 -x 54.782910 -y 57.977900 -U 0.000000 -V 0.000000 -T 0.000000
n -t 6.000000 -s 0 -x 57.026880 -y 48.057670 -U 0.000000 -V 0.000000 -T 0.000000
n -t 6.000000 -s 10 -x 26.874670 -y 31.266890 -U 0.000000 -V 0.000000 -T 0.000000
n -t 6.000000 -s 1 -x 0.283855 -y 66.146310 -U 0.000000 -V 0.000000 -T 0.000000
n -t 6.000000 -s 2 -x 45.676290 -y 92.236760 -U 0.000000 -V 0.000000 -T 0.000000
n -t 6.000000 -s 16 -x 64.582850 -y 70.081380 -U 0.000000 -V 0.000000 -T 0.000000
n -t 6.000000 -s 3 -x 48.252310 -y 95.286360 -U 0.000000 -V 0.000000 -T 0.000000
n -t 6.000000 -s 12 -x 7.947464 -y 27.749860 -U 0.000000 -V 0.000000 -T 0.000000
n -t 7.000000 -s 5 -x 37.867510 -y 54.898400 -U 0.000000 -V 0.000000 -T 0.000000
n -t 7.000000 -s 9 -x 23.589430 -y 51.891320 -U 0.000000 -V 0.000000 -T 0.000000
n -t 7.000000 -s 18 -x 54.782910 -y 57.977900 -U 0.000000 -V 0.000000 -T 0.000000
n -t 7.000000 -s 0 -x 57.026880 -y 48.057670 -U 0.000000 -V 0.000000 -T 0.000000
n -t 7.000000 -s 10 -x 26.874670 -y 31.266890 -U 0.000000 -V 0.000000 -T 0.000000
n -t 7.000000 -s 1 -x 0.283855 -y 66.146310 -U 0.000000 -V 0.000000 -T 0.000000
n -t 7.000000 -s 2 -x 45.676290 -y 92.236760 -U 0.000000 -V 0.000000 -T 0.000000
n -t 7.000000 -s 16 -x 64.582850 -y 70.081380 -U 0.000000 -V 0.000000 -T 0.000000
n -t 7.000000 -s 3 -x 48.252310 -y 95.286360 -U 0.000000 -V 0.000000 -T 0.000000
n -t 7.000000 -s 12 -x 7.947464 -y 27.749860 -U 0.000000 -V 0.000000 -T 0.000000
n -t 8.000000 -s 5 -x 37.867510 -y 54.898400 -U 0.000000 -V 0.000000 -T 0.000000
n -t 8.000000 -s 9 -x 23.589430 -y 51.891320 -U 0.000000 -V 0.000000 -T 0.000000
n -t 8.000000 -s 18 -x 54.782910 -y 57.977900 -U 0.000000 -V 0.000000 -T 0.000000
n -t 8.000000 -s 0 -x 57.026880 -y 48.057670 -U 0.000000 -V 0.000000 -T 0.000000
n -t 8.000000 -s 10 -x 26.874670 -y 31.266890 -U 0.000000 -V 0.000000 -T 0.000000
n -t 8.000000 -s 1 -x 0.283855 -y 66.146310 -U 0.000000 -V 0.000000 -T 0.000000
n -t 8.000000 -s 2 -x 45.676290 -y 92.236760 -U 0.000000 -V 0.000000 -T 0.000000
n -t 8.000000 -s 16 -x 64.582850 -y 70.081380 -U 0.000000 -V 0.000000 -T 0.000000
n -t 8.000000 -s 3 -x 48.252310 -y 95.286360 -U 0.000000 -V 0.000000 -T 0.000000
n -t 8.000000 -s 12 -x 7.947464 -y 27.749860 -U 0.000000 -V 0.000000 -T 0.000000
n -t 9.000000 -s 19 -x 28.004420 -y 60.204650 -U 0.000000 -V 0.000000 -T 0.000000
n -t 9.000000 -s 9 -x 23.589430 -y 51.891320 -U 0.000000 -V 0.000000 -T 0.000000
n -t 9.000000 -s 18 -x 54.782910 -y 57.977900 -U 0.000000 -V 0.000000 -T 0.000000
n -t 9.000000 -s 0 -x 57.026880 -y 48.057670 -U 0.000000 -V 0.000000 -T 0.000000
n -t 9.000000 -s 10 -x 26.874670 -y 31.266890 -U 0.000000 -V 0.000000 -T 0.000000
n -t 9.000000 -s 1 -x 0.283855 -y 66.146310 -U 0.000000 -V 0.000000 -T 0.000000
n -t 9.000000 -s 2 -x 45.676290 -y 92.236760 -U 0.000000 -V 0.000000 -T 0.000000
n -t 9.000000 -s 16 -x 64.582850 -y 70.081380 -U 0.000000 -V 0.000000 -T 0.000000
n -t 9.000000 -s 3 -x 48.252310 -y 95.286360 -U 0.000000 -V 0.000000 -T 0.000000
n -t 9.000000 -s 12 -x 7.947464 -y 27.749860 -U 0.000000 -V 0.000000 -T 0.000000
n -t 10.000000 -s 19 -x 28.004420 -y 60.204650 -U 0.000000 -V 0.000000 -T 0.000000
n -t 10.000000 -s 9 -x 23.589430 -y 51.891320 -U 0.000000 -V 0.000000 -T 0.000000
n -t 10.000000 -s 18 -x 54.782910 -y 57.977900 -U 0.000000 -V 0.000000 -T 0.000000
n -t 10.000000 -s 0 -x 57.026880 -y 48.057670 -U 0.000000 -V 0.000000 -T 0.000000
n -t 10.000000 -s 10 -x 26.874670 -y 31.266890 -U 0.000000 -V 0.000000 -T 0.000000
n -t 10.000000 -s 1 -x 0.283855 -y 66.146310 -U 0.000000 -V 0.000000 -T 0.000000
n -t 10.000000 -s 2 -x 45.676290 -y 92.236760 -U 0.000000 -V 0.000000 -T 0.000000
n -t 10.000000 -s 16 -x 64.582850 -y 70.081380 -U 0.000000 -V 0.000000 -T 0.000000
n -t 10.000000 -s 3 -x 48.252310 -y 95.286360 -U 0.000000 -V 0.000000 -T 0.000000
n -t 10.000000 -s 12 -x 7.947464 -y 27.749860 -U 0.000000 -V 0.000000 -T 0.000000
n -t 11.000000 -s 19 -x 28.004420 -y 60.204650 -U 0.000000 -V 0.000000 -T 0.000000
n -t 11.000000 -s 9 -x 23.589430 -y 51.891320 -U 0.000000 -V 0.000000 -T 0.000000
n -t 11.000000 -s 18 -x 54.782910 -y 57.977900 -U 0.000000 -V 0.000000 -T 0.000000
n -t 11.000000 -s 0 -x 57.026880 -y 48.057670 -U 0.000000 -V 0.000000 -T 0.000000
n -t 11.000000 -s 10 -x 26.874670 -y 31.266890 -U 0.000000 -V 0.000000 -T 0.000000
n -t 11.000000 -s 1 -x 0.283855 -y 66.146310 -U 0.000000 -V 0.000000 -T 0.000000
n -t 11.000000 -s 2 -x 45.676290 -y 92.236760 -U 0.000000 -V 0.000000 -T 0.000000
n -t 11.000000 -s 16 -x 64.582850 -y 70.081380 -U 0.000000 -V 0.000000 -T 0.000000
n -t 11.000000 -s 3 -x 48.252310 -y 95.286360 -U 0.000000 -V 0.000000 -T 0.000000
n -t 11.000000 -s 12 -x 7.947464 -y 27.749860 -U 0.000000 -V 0.000000 -T 0.000000
n -t 12.000000 -s 19 -x 28.004420 -y 60.204650 -U 0.000000 -V 0.000000 -T 0.000000
n -t 12.000000 -s 9 -x 23.589430 -y 51.891320 -U 0.000000 -V 0.000000 -T 0.000000
n -t 12.000000 -s 18 -x 54.782910 -y 57.977900 -U 0.000000 -V 0.000000 -T 0.000000
n -t 12.000000 -s 0 -x 57.026880 -y 48.057670 -U 0.000000 -V 0.000000 -T 0.000000
n -t 12.000000 -s 10 -x 26.874670 -y 31.266890 -U 0.000000 -V 0.000000 -T 0.000000
n -t 12.000000 -s 1 -x 0.283855 -y 66.146310 -U 0.000000 -V 0.000000 -T 0.000000
n -t 12.000000 -s 2 -x 45.676290 -y 92.236760 -U 0.000000 -V 0.000000 -T 0.000000
n -t 12.000000 -s 16 -x 64.582850 -y 70.081380 -U 0.000000 -V 0.000000 -T 0.000000
n -t 12.000000 -s 3 -x 48.252310 -y 95.286360 -U 0.000000 -V 0.000000 -T 0.000000
n -t 12.000000 -s 12 -x 7.947464 -y 27.749860 -U 0.000000 -V 0.000000 -T 0.000000
n -t 13.000000 -s 19 -x 28.004420 -y 60.204650 -U 0.000000 -V 0.000000 -T 0.000000
n -t 13.000000 -s 9 -x 23.589430 -y 51.891320 -U 0.000000 -V 0.000000 -T 0.000000
n -t 13.000000 -s 18 -x 54.782910 -y 57.977900 -U 0.000000 -V 0.000000 -T 0.000000
n -t 13.000000 -s 0 -x 57.026880 -y 48.057670 -U 0.000000 -V 0.000000 -T 0.000000
n -t 13.000000 -s 10 -x 26.874670 -y 31.266890 -U 0.000000 -V 0.000000 -T 0.000000
n -t 13.000000 -s 1 -x 0.283855 -y 66.146310 -U 0.000000 -V 0.000000 -T 0.000000
n -t 13.000000 -s 2 -x 45.676290 -y 92.236760 -U 0.000000 -V 0.000000 -T 0.000000
n -t 13.000000 -s 16 -x 64.582850 -y 70.081380 -U 0.000000 -V 0.000000 -T 0.000000
n -t 13.000000 -s 3 -x 48.252310 -y 95.286360 -U 0.000000 -V 0.000000 -T 0.000000
n -t 13.000000 -s 12 -x 7.947464 -y 27.749860 -U 0.000000 -V 0.000000 -T 0.000000
n -t 14.000000 -s 19 -x 28.004420 -y 60.204650 -U 0.000000 -V 0.000000 -T 0.000000
n -t 14.000000 -s 9 -x 23.589430 -y 51.891320 -U 0.000000 -V 0.000000 -T 0.000000
n -t 14.000000 -s 18 -x 54.782910 -y 57.977900 -U 0.000000 -V 0.000000 -T 0.000000
n -t 14.000000 -s 0 -x 57.026880 -y 48.057670 -U 0.000000 -V 0.000000 -T 0.000000
n -t 14.000000 -s 10 -x 26.874670 -y 31.266890 -U 0.000000 -V 0.000000 -T 0.000000
n -t 14.000000 -s 1 -x 0.283855 -y 66.146310 -U 0.000000 -V 0.000000 -T 0.000000
n -t 14.000000 -s 2 -x 45.676290 -y 92.236760 -U 0.000000 -V 0.000000 -T 0.000000
n -t 14.000000 -s 16 -x 64.582850 -y 70.081380 -U 0.000000 -V 0.000000 -T 0.000000
n -t 14.000000 -s 3 -x 48.252310 -y 95.286360 -U 0.000000 -V 0.000000 -T 0.000000
n -t 14.000000 -s 12 -x 7.947464 -y 27.749860 -U 0.000000 -V 0.000000 -T 0.000000
n -t 15.000000 -s 19 -x 28.004420 -y 60.204650 -U 0.000000 -V 0.000000 -T 0.000000
n -t 15.000000 -s 9 -x 23.589430 -y 51.891320 -U 0.000000 -V 0.000000 -T 0.000000
n -t 15.000000 -s 18 -x 54.782910 -y 57.977900 -U 0.000000 -V 0.000000 -T 0.000000
n -t 15.000000 -s 0 -x 57.026880 -y 48.057670 -U 0.000000 -V 0.000000 -T 0.000000
n -t 15.000000 -s 10 -x 26.874670 -y 31.266890 -U 0.000000 -V 0.000000 -T 0.000000
n -t 15.000000 -s 1 -x 0.283855 -y 66.146310 -U 0.000000 -V 0.000000 -T 0.000000
n -t 15.000000 -s 2 -x 45.676290 -y 92.236760 -U 0.000000 -V 0.000000 -T 0.000000
n -t 15.000000 -s 16 -x 64.582850 -y 70.081380 -U 0.000000 -V 0.000000 -T 0.000000
n -t 15.000000 -s 3 -x 48.252310 -y 95.286360 -U 0.000000 -V 0.000000 -T 0.000000
n -t 15.000000 -s 12 -x 7.947464 -y 27.749860 -U 0.000000 -V 0.000000 -T 0.000000
n -t 16.000000 -s 19 -x 28.004420 -y 60.204650 -U 0.000000 -V 0.000000 -T 0.000000
n -t 16.000000 -s 9 -x 23.589430 -y 51.891320 -U 0.000000 -V 0.000000 -T 0.000000
n -t 16.000000 -s 18 -x 54.782910 -y 57.977900 -U 0.000000 -V 0.000000 -T 0.000000
n -t 16.000000 -s 0 -x 57.026880 -y 48.057670 -U 0.000000 -V 0.000000 -T 0.000000
n -t 16.000000 -s 10 -x 26.874670 -y 31.266890 -U 0.000000 -V 0.000000 -T 0.000000
n -t 16.000000 -s 1 -x 0.283855 -y 66.146310 -U 0.000000 -V 0.000000 -T 0.000000
n -t 16.000000 -s 2 -x 45.676290 -y 92.236760 -U 0.000000 -V 0.000000 -T 0.000000
n -t 16.000000 -s 16 -x 64.582850 -y 70.081380 -U 0.000000 -V 0.000000 -T 0.000000
n -t 16.000000 -s 3 -x 48.252310 -y 95.286360 -U 0.000000 -V 0.000000 -T 0.000000
n -t 16.000000 -s 12 -x 7.947464 -y 27.749860 -U 0.000000 -V 0.000000 -T 0.000000
n -t 17.000000 -s 19 -x 28.004420 -y 60.204650 -U 0.000000 -V 0.000000 -T 0.000000
n -t 17.000000 -s 9 -x 23.589430 -y 51.891320 -U 0.000000 -V 0.000000 -T 0.000000
n -t 17.000000 -s 18 -x 54.782910 -y 57.977900 -U 0.000000 -V 0.000000 -T 0.000000
n -t 17.000000 -s 0 -x 57.026880 -y 48.057670 -U 0.000000 -V 0.000000 -T 0.000000
n -t 17.000000 -s 10 -x 26.874670 -y 31.266890 -U 0.000000 -V 0.000000 -T 0.000000
n -t 17.000000 -s 1 -x 0.283855 -y 66.146310 -U 0.000000 -V 0.000000 -T 0.000000
n -t 17.000000 -s 2 -x 45.676290 -y 92.236760 -U 0.000000 -V 0.000000 -T 0.000000
n -t 17.000000 -s 16 -x 64.582850 -y 70.081380 -U 0.000000 -V 0.000000 -T 0.000000
n -t 17.000000 -s 3 -x 48.252310 -y 95.286360 -U 0.000000 -V 0.000000 -T 0.000000
n -t 17.000000 -s 12 -x 7.947464 -y 27.749860 -U 0.000000 -V 0.000000 -T 0.000000
n -t 19.000000 -s 19 -x 28.004420 -y 60.204650 -U 0.000000 -V 0.000000 -T 0.000000
n -t 19.000000 -s 5 -x 37.867510 -y 54.898400 -U 0.000000 -V 0.000000 -T 0.000000
n -t 19.000000 -s 9 -x 23.589430 -y 51.891320 -U 0.000000 -V 0.000000 -T 0.000000
n -t 19.000000 -s 18 -x 54.782910 -y 57.977900 -U 0.000000 -V 0.000000 -T 0.000000
n -t 19.000000 -s 0 -x 57.026880 -y 48.057670 -U 0.000000 -V 0.000000 -T 0.000000
n -t 19.000000 -s 10 -x 26.874670 -y 31.266890 -U 0.000000 -V 0.000000 -T 0.000000
n -t 19.000000 -s 1 -x 0.283855 -y 66.146310 -U 0.000000 -V 0.000000 -T 0.000000
n -t 19.000000 -s 2 -x 45.676290 -y 92.236760 -U 0.000000 -V 0.000000 -T 0.000000
n -t 19.000000 -s 16 -x 64.582850 -y 70.081380 -U 0.000000 -V 0.000000 -T 0.000000
n -t 19.000000 -s 3 -x 48.252310 -y 95.286360 -U 0.000000 -V 0.000000 -T 0.000000
n -t 19.000000 -s 12 -x 7.947464 -y 27.749860 -U 0.000000 -V 0.000000 -T 0.000000
n -t 19.000000 -s 5 -x 37.867510 -y 54.898400 -U -0.481275 -V -0.876570 -T 5.909634
n -t 19.000000 -s 9 -x 23.589430 -y 51.891320 -U 0.809141 -V -0.587614 -T 6.156940
n -t 19.000000 -s 10 -x 26.874670 -y 31.266890 -U 0.377901 -V 0.925846 -T 10.195247
n -t 19.000000 -s 19 -x 28.004420 -y 60.204650 -U 0.296279 -V -0.955102 -T 10.568295
n -t 19.000000 -s 0 -x 57.026880 -y 48.057670 -U -0.993838 -V -0.110838 -T 19.561242
n -t 19.000000 -s 18 -x 54.782910 -y 57.977900 -U -0.868643 -V -0.495439 -T 20.517894
n -t 19.000000 -s 12 -x 7.947464 -y 27.749860 -U 0.814289 -V 0.580460 -T 25.295776
n -t 19.000000 -s 8 -x 64.415220 -y 35.488220 -U -0.955245 -V 0.295816 -T 28.288052
n -t 19.000000 -s 13 -x 60.725450 -y 22.708380 -U -0.778970 -V 0.627061 -T 31.084153
n -t 19.000000 -s 6 -x 70.293160 -y 39.411820 -U -0.987865 -V 0.155314 -T 33.138999
n -t 19.000000 -s 1 -x 0.283855 -y 66.146310 -U 0.840878 -V -0.541225 -T 33.451615
n -t 19.000000 -s 16 -x 64.582850 -y 70.081380 -U -0.790745 -V -0.612146 -T 35.425034
n -t 20.000000 -s 5 -x 37.386235 -y 54.021830 -U 0.000000 -V 0.000000 -T 0.000000
n -t 20.000000 -s 9 -x 24.398571 -y 51.303706 -U 0.000000 -V 0.000000 -T 0.000000
n -t 20.000000 -s 10 -x 27.252571 -y 32.192736 -U 0.000000 -V 0.000000 -T 0.000000
n -t 20.000000 -s 19 -x 28.300699 -y 59.249548 -U 0.000000 -V 0.000000 -T 0.000000
n -t 20.000000 -s 0 -x 56.033042 -y 47.946832 -U 0.000000 -V 0.000000 -T 0.000000
n -t 20.000000 -s 18 -x 53.914267 -y 57.482461 -U 0.000000 -V 0.000000 -T 0.000000
n -t 20.000000 -s 12 -x 8.761753 -y 28.330320 -U 0.000000 -V 0.000000 -T 0.000000
n -t 20.000000 -s 8 -x 63.459975 -y 35.784036 -U 0.000000 -V 0.000000 -T 0.000000
n -t 20.000000 -s 13 -x 59.946480 -y 23.335441 -U 0.000000 -V 0.000000 -T 0.000000
n -t 20.000000 -s 6 -x 69.305295 -y 39.567134 -U 0.000000 -V 0.000000 -T 0.000000
n -t 20.000000 -s 1 -x 1.124733 -y 65.605085 -U 0.000000 -V 0.000000 -T 0.000000
n -t 20.000000 -s 16 -x 63.792105 -y 69.469234 -U 0.000000 -V 0.000000 -T 0.000000
n -t 20.000000 -s 5 -x 37.386235 -y 54.021830 -U -0.438410 -V -0.898775 -T 5.598627
n -t 20.000000 -s 9 -x 24.398571 -y 51.303706 -U 0.774726 -V -0.632297 -T 5.766542
n -t 20.000000 -s 10 -x 27.252571 -y 32.192736 -U 0.407314 -V 0.913288 -T 8.471451
n -t 20.000000 -s 19 -x 28.300699 -y 59.249548 -U 0.288118 -V -0.957595 -T 10.406828
n -t 20.000000 -s 0 -x 56.033042 -y 47.946832 -U -0.989204 -V -0.146545 -T 18.547573
n -t 20.000000 -s 18 -x 53.914267 -y 57.482461 -U -0.852450 -V -0.522809 -T 19.839679
n -t 20.000000 -s 12 -x 8.761753 -y 28.330320 -U 0.829159 -V 0.559012 -T 23.918372
n -t 20.000000 -s 8 -x 63.459975 -y 35.784036 -U -0.962062 -V 0.272833 -T 26.931727
n -t 20.000000 -s 13 -x 59.946480 -y 23.335441 -U -0.789355 -V 0.613936 -T 29.467098
n -t 20.000000 -s 6 -x 69.305295 -y 39.567134 -U -0.991037 -V 0.133588 -T 31.896311
n -t 20.000000 -s 1 -x 1.124733 -y 65.605085 -U 0.831657 -V -0.555290 -T 33.014429
n -t 20.000000 -s 16 -x 63.792105 -y 69.469234 -U -0.779260 -V -0.626701 -T 34.848620
n -t 21.000000 -s 5 -x 36.947825 -y 53.123055 -U 0.000000 -V 0.000000 -T 0.000000
n -t 21.000000 -s 9 -x 25.173297 -y 50.671409 -U 0.000000 -V 0.000000 -T 0.000000
n -t 21.000000 -s 10 -x 27.659886 -y 33.106024 -U 0.000000 -V 0.000000 -T 0.000000
n -t 21.000000 -s 19 -x 28.588817 -y 58.291954 -U 0.000000 -V 0.000000 -T 0.000000
n -t 21.000000 -s 0 -x 55.043838 -y 47.800287 -U 0.000000 -V 0.000000 -T 0.000000
n -t 21.000000 -s 18 -x 53.061817 -y 56.959652 -U 0.000000 -V 0.000000 -T 0.000000
n -t 21.000000 -s 12 -x 9.590912 -y 28.889332 -U 0.000000 -V 0.000000 -T 0.000000
n -t 21.000000 -s 8 -x 62.497913 -y 36.056868 -U 0.000000 -V 0.000000 -T 0.000000
n -t 21.000000 -s 13 -x 59.157124 -y 23.949378 -U 0.000000 -V 0.000000 -T 0.000000
n -t 21.000000 -s 6 -x 68.314258 -y 39.700722 -U 0.000000 -V 0.000000 -T 0.000000
n -t 21.000000 -s 1 -x 1.956389 -y 65.049795 -U 0.000000 -V 0.000000 -T 0.000000
n -t 21.000000 -s 16 -x 63.012846 -y 68.842532 -U 0.000000 -V 0.000000 -T 0.000000
n -t 21.000000 -s 5 -x 36.947825 -y 53.123055 -U -0.396248 -V -0.918144 -T 5.310264
n -t 21.000000 -s 9 -x 25.173297 -y 50.671409 -U 0.738764 -V -0.673964 -T 5.408063
n -t 21.000000 -s 10 -x 27.659886 -y 33.106024 -U 0.442253 -V 0.896890 -T 6.763676
n -t 21.000000 -s 19 -x 28.588817 -y 58.291954 -U 0.280301 -V -0.959912 -T 10.246398
n -t 21.000000 -s 0 -x 55.043838 -y 47.800287 -U -0.982996 -V -0.183626 -T 17.565125
n -t 21.000000 -s 18 -x 53.061817 -y 56.959652 -U -0.835155 -V -0.550015 -T 19.186431
n -t 21.000000 -s 12 -x 9.590912 -y 28.889332 -U 0.844346 -V 0.535798 -T 22.561550
n -t 21.000000 -s 8 -x 62.497913 -y 36.056868 -U -0.968656 -V 0.248407 -T 25.594471
n -t 21.000000 -s 13 -x 59.157124 -y 23.949378 -U -0.800200 -V 0.599734 -T 27.860203
n -t 21.000000 -s 6 -x 68.314258 -y 39.700722 -U -0.993832 -V 0.110900 -T 30.671895
n -t 21.000000 -s 1 -x 1.956389 -y 65.049795 -U 0.822235 -V -0.569148 -T 32.587818
n -t 21.000000 -s 16 -x 63.012846 -y 68.842532 -U -0.767464 -V -0.641091 -T 34.285782
n -t 22.000000 -s 5 -x 36.551577 -y 52.204912 -U 0.000000 -V 0.000000 -T 0.000000
n -t 22.000000 -s 9 -x 25.912062 -y 49.997445 -U 0.000000 -V 0.000000 -T 0.000000
n -t 22.000000 -s 10 -x 28.102139 -y 34.002914 -U 0.000000 -V 0.000000 -T 0.000000
n -t 22.000000 -s 19 -x 28.869118 -y 57.332042 -U 0.000000 -V 0.000000 -T 0.000000
n -t 22.000000 -s 0 -x 54.060841 -y 47.616661 -U 0.000000 -V 0.000000 -T 0.000000
n -t 22.000000 -s 18 -x 52.226663 -y 56.409637 -U 0.000000 -V 0.000000 -T 0.000000
n -t 22.000000 -s 12 -x 10.435258 -y 29.425130 -U 0.000000 -V 0.000000 -T 0.000000
n -t 22.000000 -s 8 -x 61.529258 -y 36.305275 -U 0.000000 -V 0.000000 -T 0.000000
n -t 22.000000 -s 13 -x 58.356925 -y 24.549111 -U 0.000000 -V 0.000000 -T 0.000000
n -t 22.000000 -s 6 -x 67.320426 -y 39.811623 -U 0.000000 -V 0.000000 -T 0.000000
n -t 22.000000 -s 1 -x 2.778624 -y 64.480647 -U 0.000000 -V 0.000000 -T 0.000000
n -t 22.000000 -s 16 -x 62.245381 -y 68.201441 -U 0.000000 -V 0.000000 -T 0.000000
n -t 22.000000 -s 5 -x 36.551577 -y 52.204912 -U -0.355150 -V -0.934809 -T 5.042110
n -t 22.000000 -s 10 -x 28.102139 -y 34.002914 -U 0.484582 -V 0.874746 -T 5.076687
n -t 22.000000 -s 9 -x 25.912062 -y 49.997445 -U 0.701782 -V -0.712392 -T 5.078710
n -t 22.000000 -s 19 -x 28.869118 -y 57.332042 -U 0.272819 -V -0.962065 -T 10.086905
n -t 22.000000 -s 0 -x 54.060841 -y 47.616661 -U -0.975040 -V -0.222029 -T 16.615236
n -t 22.000000 -s 18 -x 52.226663 -y 56.409637 -U -0.816769 -V -0.576964 -T 18.558107
n -t 22.000000 -s 12 -x 10.435258 -y 29.425130 -U 0.859799 -V 0.510633 -T 21.226906
n -t 22.000000 -s 8 -x 61.529258 -y 36.305275 -U -0.974949 -V 0.222429 -T 24.277574
n -t 22.000000 -s 13 -x 58.356925 -y 24.549111 -U -0.811525 -V 0.584318 -T 26.264371
n -t 22.000000 -s 6 -x 67.320426 -y 39.811623 -U -0.996190 -V 0.087210 -T 29.466626
n -t 22.000000 -s 1 -x 2.778624 -y 64.480647 -U 0.812623 -V -0.582789 -T 32.171578
n -t 22.000000 -s 16 -x 62.245381 -y 68.201441 -U -0.755368 -V -0.655300 -T 33.736413
n -t 23.000000 -s 5 -x 36.196426 -y 51.270103 -U 0.000000 -V 0.000000 -T 0.000000
n -t 23.000000 -s 10 -x 28.586720 -y 34.877660 -U 0.000000 -V 0.000000 -T 0.000000
n -t 23.000000 -s 9 -x 26.613844 -y 49.285053 -U 0.000000 -V 0.000000 -T 0.000000
n -t 23.000000 -s 19 -x 29.141938 -y 56.369976 -U 0.000000 -V 0.000000 -T 0.000000
n -t 23.000000 -s 0 -x 53.085801 -y 47.394632 -U 0.000000 -V 0.000000 -T 0.000000
n -t 23.000000 -s 18 -x 51.409893 -y 55.832673 -U 0.000000 -V 0.000000 -T 0.000000
n -t 23.000000 -s 12 -x 11.295057 -y 29.935763 -U 0.000000 -V 0.000000 -T 0.000000
n -t 23.000000 -s 8 -x 60.554309 -y 36.527704 -U 0.000000 -V 0.000000 -T 0.000000
n -t 23.000000 -s 13 -x 57.545400 -y 25.133430 -U 0.000000 -V 0.000000 -T 0.000000
n -t 23.000000 -s 6 -x 66.324236 -y 39.898833 -U 0.000000 -V 0.000000 -T 0.000000
n -t 23.000000 -s 1 -x 3.591248 -y 63.897858 -U 0.000000 -V 0.000000 -T 0.000000
n -t 23.000000 -s 16 -x 61.490013 -y 67.546141 -U 0.000000 -V 0.000000 -T 0.000000
n -t 23.000000 -s 10 -x 28.586720 -y 34.877660 -U 0.537097 -V 0.843521 -T 3.417692
n -t 23.000000 -s 9 -x 26.613844 -y 49.285053 -U 0.664305 -V -0.747462 -T 4.775615
n -t 23.000000 -s 5 -x 36.196426 -y 51.270103 -U -0.315426 -V -0.948950 -T 4.791815
n -t 23.000000 -s 19 -x 29.141938 -y 56.369976 -U 0.265664 -V -0.964066 -T 9.928255
n -t 23.000000 -s 0 -x 53.085801 -y 47.394632 -U -0.965156 -V -0.261675 -T 15.699211
n -t 23.000000 -s 18 -x 51.409893 -y 55.832673 -U -0.797316 -V -0.603562 -T 17.954584
n -t 23.000000 -s 12 -x 11.295057 -y 29.935763 -U 0.875446 -V 0.483316 -T 19.916190
n -t 23.000000 -s 8 -x 60.554309 -y 36.527704 -U -0.980847 -V 0.194781 -T 22.982430
n -t 23.000000 -s 13 -x 57.545400 -y 25.133430 -U -0.823351 -V 0.567533 -T 24.680624
n -t 23.000000 -s 6 -x 66.324236 -y 39.898833 -U -0.998046 -V 0.062477 -T 28.281420
n -t 23.000000 -s 1 -x 3.591248 -y 63.897858 -U 0.802834 -V -0.596203 -T 31.765503
n -t 23.000000 -s 16 -x 61.490013 -y 67.546141 -U -0.742981 -V -0.669312 -T 33.200390
n -t 23.000000 -s 9 -x 26.613844 -y 49.285053 -U 0.000000 -V 0.000000 -T 0.000000
n -t 23.000000 -s 5 -x 36.196426 -y 51.270103 -U 0.000000 -V 0.000000 -T 0.000000
n -t 23.000000 -s 19 -x 29.141938 -y 56.369976 -U 0.000000 -V 0.000000 -T 0.000000
n -t 23.000000 -s 0 -x 53.085801 -y 47.394632 -U 0.000000 -V 0.000000 -T 0.000000
n -t 23.000000 -s 18 -x 51.409893 -y 55.832673 -U 0.000000 -V 0.000000 -T 0.000000
n -t 23.000000 -s 12 -x 11.295057 -y 29.935763 -U 0.000000 -V 0.000000 -T 0.000000
n -t 23.000000 -s 8 -x 60.554309 -y 36.527704 -U 0.000000 -V 0.000000 -T 0.000000
n -t 23.000000 -s 13 -x 57.545400 -y 25.133430 -U 0.000000 -V 0.000000 -T 0.000000
n -t 23.000000 -s 6 -x 66.324236 -y 39.898833 -U 0.000000 -V 0.000000 -T 0.000000
n -t 23.000000 -s 1 -x 3.591248 -y 63.897858 -U 0.000000 -V 0.000000 -T 0.000000
n -t 23.000000 -s 16 -x 61.490013 -y 67.546141 -U 0.000000 -V 0.000000 -T 0.000000
n -t 24.000000 -s 9 -x 26.613844 -y 49.285053 -U 0.000000 -V 0.000000 -T 0.000000
n -t 24.000000 -s 5 -x 36.196426 -y 51.270103 -U 0.000000 -V 0.000000 -T 0.000000
n -t 24.000000 -s 19 -x 29.141938 -y 56.369976 -U 0.000000 -V 0.000000 -T 0.000000
n -t 24.000000 -s 0 -x 53.085801 -y 47.394632 -U 0.000000 -V 0.000000 -T 0.000000
n -t 24.000000 -s 18 -x 51.409893 -y 55.832673 -U 0.000000 -V 0.000000 -T 0.000000
n -t 24.000000 -s 12 -x 11.295057 -y 29.935763 -U 0.000000 -V 0.000000 -T 0.000000
n -t 24.000000 -s 8 -x 60.554309 -y 36.527704 -U 0.000000 -V 0.000000 -T 0.000000
n -t 24.000000 -s 13 -x 57.545400 -y 25.133430 -U 0.000000 -V 0.000000 -T 0.000000
n -t 24.000000 -s 6 -x 66.324236 -y 39.898833 -U 0.000000 -V 0.000000 -T 0.000000
n -t 24.000000 -s 1 -x 3.591248 -y 63.897858 -U 0.000000 -V 0.000000 -T 0.000000
n -t 24.000000 -s 16 -x 61.490013 -y 67.546141 -U 0.000000 -V 0.000000 -T 0.000000
n -t 25.000000 -s 9 -x 26.613844 -y 49.285053 -U 0.000000 -V 0.000000 -T 0.000000
n -t 25.000000 -s 5 -x 36.196426 -y 51.270103 -U 0.000000 -V 0.000000 -T 0.000000
n -t 25.000000 -s 19 -x 29.141938 -y 56.369976 -U 0.000000 -V 0.000000 -T 0.000000
n -t 25.000000 -s 0 -x 53.085801 -y 47.394632 -U 0.000000 -V 0.000000 -T 0.000000
n -t 25.000000 -s 18 -x 51.409893 -y 55.832673 -U 0.000000 -V 0.000000 -T 0.000000
n -t 25.000000 -s 12 -x 11.295057 -y 29.935763 -U 0.000000 -V 0.000000 -T 0.000000
n -t 25.000000 -s 8 -x 60.554309 -y 36.527704 -U 0.000000 -V 0.000000 -T 0.000000
n -t 25.000000 -s 13 -x 57.545400 -y 25.133430 -U 0.000000 -V 0.000000 -T 0.000000