n -t * -s 0  -x 18.715150000000001 -y 44.59742 -Z 0 -z 1  -v circle -c black
n -t * -s 1  -x 97.499529999999993 -y 20.46369 -Z 0 -z 1  -v circle -c black
n -t * -s 2  -x 61.990290000000002 -y 9.3656279999999992 -Z 0 -z 1  -v circle -c black
n -t * -s 3  -x 16.850680000000001 -y 10.202719999999999 -Z 0 -z 1  -v circle -c black
n -t * -s 4  -x 76.274280000000005 -y 14.325699999999999 -Z 0 -z 1  -v circle -c black
n -t * -s 5  -x 9.6672670000000007 -y 2.9194390000000001 -Z 0 -z 1  -v circle -c black
n -t * -s 6  -x 52.080730000000003 -y 39.646279999999997 -Z 0 -z 1  -v circle -c black
n -t * -s 7  -x 62.850769999999997 -y 21.204519999999999 -Z 0 -z 1  -v circle -c black
n -t * -s 8  -x 16.346260000000001 -y 57.861879999999999 -Z 0 -z 1  -v circle -c black
n -t * -s 9  -x 50.216189999999997 -y 32.32741 -Z 0 -z 1  -v circle -c black
n -t * -s 10  -x 13.703189999999999 -y 69.806989999999999 -Z 0 -z 1  -v circle -c black
n -t * -s 11  -x 21.056380000000001 -y 0.95403800000000005 -Z 0 -z 1  -v circle -c black
n -t * -s 12  -x 84.833240000000004 -y 14.63862 -Z 0 -z 1  -v circle -c black
n -t * -s 13  -x 65.495900000000006 -y 47.262560000000001 -Z 0 -z 1  -v circle -c black
n -t * -s 14  -x 58.003529999999998 -y 65.036140000000003 -Z 0 -z 1  -v circle -c black
n -t * -s 15  -x 91.092600000000004 -y 53.323810000000002 -Z 0 -z 1  -v circle -c black
n -t * -s 16  -x 79.004409999999993 -y 37.079520000000002 -Z 0 -z 1  -v circle -c black
n -t * -s 17  -x 23.649470000000001 -y 89.779129999999995 -Z 0 -z 1  -v circle -c black
n -t * -s 18  -x 96.981830000000002 -y 11.13964 -Z 0 -z 1  -v circle -c black
n -t * -s 19  -x 84.018339999999995 -y 38.618070000000003 -Z 0 -z 1  -v circle -c black
n -t * -s 20  -x 40.016019999999997 -y 30.175139999999999 -Z 0 -z 2  -v circle -c black
V -t * -v 1.0a5 -a 0
W -t * -x 100 -y 100
A -t * -n 1 -p 0 -o 0x7fffffff -c 30 -a 1
A -t * -h 1 -m 1073741823 -s 0
n -t 0 -s 20 -S COLOR -c red -o black -i red -I black
n -t 0.000000 -s 20 -x 40.016020 -y 30.175140 -U 2.397639 -V -0.110511 -T 16.630789
n -t 22.000000 -s 20 -x 79.890640 -y 28.337250 -U -0.930166 -V 2.437349 -T 27.598800
n -t 59.000000 -s 20 -x 54.219180 -y 95.605160 -U 0.941959 -V -1.522419 -T 35.232591
