n -t * -s 0  -x 92.927959999999999 -y 59.516840000000002 -Z 0 -z 1  -v circle -c black
n -t * -s 1  -x 62.828130000000002 -y 86.567679999999996 -Z 0 -z 1  -v circle -c black
n -t * -s 2  -x 53.108089999999997 -y 53.044820000000001 -Z 0 -z 1  -v circle -c black
n -t * -s 3  -x 31.44548 -y 21.209599999999998 -Z 0 -z 1  -v circle -c black
n -t * -s 4  -x 72.704750000000004 -y 87.260310000000004 -Z 0 -z 1  -v circle -c black
n -t * -s 5  -x 46.137320000000003 -y 63.02534 -Z 0 -z 1  -v circle -c black
n -t * -s 6  -x 64.616889999999998 -y 66.327280000000002 -Z 0 -z 1  -v circle -c black
n -t * -s 7  -x 76.609089999999995 -y 13.666180000000001 -Z 0 -z 1  -v circle -c black
n -t * -s 8  -x 89.628720000000001 -y 21.281929999999999 -Z 0 -z 1  -v circle -c black
n -t * -s 9  -x 56.313659999999999 -y 2.1936330000000002 -Z 0 -z 1  -v circle -c black
n -t * -s 10  -x 42.60407 -y 0.2080185 -Z 0 -z 1  -v circle -c black
n -t * -s 11  -x 84.624539999999996 -y 41.12979 -Z 0 -z 1  -v circle -c black
n -t * -s 12  -x 97.145920000000004 -y 89.83466 -Z 0 -z 1  -v circle -c black
n -t * -s 13  -x 53.762560000000001 -y 26.303190000000001 -Z 0 -z 1  -v circle -c black
n -t * -s 14  -x 34.195419999999999 -y 95.874309999999994 -Z 0 -z 1  -v circle -c black
n -t * -s 15  -x 28.079360000000001 -y 81.502380000000002 -Z 0 -z 1  -v circle -c black
n -t * -s 16  -x 5.562125 -y 29.187889999999999 -Z 0 -z 1  -v circle -c black
n -t * -s 17  -x 49.233080000000001 -y 57.681249999999999 -Z 0 -z 1  -v circle -c black
n -t * -s 18  -x 42.415439999999997 -y 18.32602 -Z 0 -z 1  -v circle -c black
n -t * -s 19  -x 32.900170000000003 -y 64.649810000000002 -Z 0 -z 1  -v circle -c black
n -t * -s 20  -x 29.618780000000001 -y 50.897570000000002 -Z 0 -z 2  -v circle -c black
V -t * -v 1.0a5 -a 0
W -t * -x 100 -y 100
A -t * -n 1 -p 0 -o 0x7fffffff -c 30 -a 1
A -t * -h 1 -m 1073741823 -s 0
n -t 0 -s 20 -S COLOR -c red -o black -i red -I black
n -t 0.000000 -s 20 -x 29.618780 -y 50.897570 -U -0.659273 -V -2.570996 -T 17.680644
n -t 0.000000 -s 19 -x 32.900170 -y 64.649810 -U -0.232092 -V -0.972694 -T 14.138303
n -t 0.000000 -s 3 -x 31.445480 -y 21.209600 -U -0.116701 -V 0.993167 -T 15.652789
n -t 0.000000 -s 13 -x 53.762560 -y 26.303190 -U -0.691361 -V 0.722509 -T 14.466593
n -t 0.000000 -s 16 -x 5.562125 -y 29.187890 -U 0.794905 -V 0.606734 -T 12.472587
n -t 0.000000 -s 17 -x 49.233080 -y 57.681250 -U -0.627854 -V -0.778331 -T 8.715670
n -t 0.000000 -s 5 -x 46.137320 -y 63.025340 -U -0.929897 -V -0.367819 -T 32.972107
n -t 0.000000 -s 2 -x 53.108090 -y 53.044820 -U -0.614670 -V 0.788784 -T 15.206806
n -t 0.000000 -s 15 -x 28.079360 -y 81.502380 -U -0.607864 -V -0.794041 -T 20.732778
n -t 0.000000 -s 6 -x 64.616890 -y 66.327280 -U -0.999324 -V -0.036765 -T 35.021787
n -t 0.000000 -s 19 -x 32.900170 -y 64.649810 -U -0.232092 -V -0.972694 -T 9.138303
n -t 1.000000 -s 19 -x 32.668078 -y 63.677116 -U 0.000000 -V 0.000000 -T 0.000000
n -t 1.000000 -s 3 -x 31.328779 -y 22.202767 -U 0.000000 -V 0.000000 -T 0.000000
n -t 1.000000 -s 13 -x 53.071199 -y 27.025699 -U 0.000000 -V 0.000000 -T 0.000000
n -t 1.000000 -s 16 -x 6.357030 -y 29.794624 -U 0.000000 -V 0.000000 -T 0.000000
n -t 1.000000 -s 17 -x 48.605226 -y 56.902919 -U 0.000000 -V 0.000000 -T 0.000000
n -t 1.000000 -s 5 -x 45.207423 -y 62.657521 -U 0.000000 -V 0.000000 -T 0.000000
n -t 1.000000 -s 2 -x 52.493420 -y 53.833604 -U 0.000000 -V 0.000000 -T 0.000000
n -t 1.000000 -s 15 -x 27.471496 -y 80.708339 -U 0.000000 -V 0.000000 -T 0.000000
n -t 1.000000 -s 6 -x 63.617566 -y 66.290515 -U 0.000000 -V 0.000000 -T 0.000000
n -t 1.000000 -s 19 -x 32.668078 -y 63.677116 -U -0.234836 -V -0.972035 -T 15.792170
n -t 1.000000 -s 3 -x 31.328779 -y 22.202767 -U -0.193985 -V 0.981004 -T 12.213677
n -t 1.000000 -s 13 -x 53.071199 -y 27.025699 -U -0.812281 -V 0.583266 -T 12.273532
n -t 1.000000 -s 16 -x 6.357030 -y 29.794624 -U 0.887627 -V 0.460563 -T 9.531414
n -t 1.000000 -s 17 -x 48.605226 -y 56.902919 -U -0.540078 -V -0.841615 -T 10.190344
n -t 1.000000 -s 5 -x 45.207423 -y 62.657521 -U -0.904477 -V -0.426522 -T 33.599572
n -t 1.000000 -s 2 -x 52.493420 -y 53.833604 -U -0.736139 -V 0.676830 -T 12.758155
n -t 1.000000 -s 15 -x 27.471496 -y 80.708339 -U -0.570022 -V -0.821629 -T 22.199345
n -t 1.000000 -s 6 -x 63.617566 -y 66.290515 -U -0.993975 -V -0.109607 -T 34.868141
n -t 1.000000 -s 19 -x 32.668078 -y 63.677116 -U -0.234836 -V -0.972035 -T 10.792170
n -t 2.000000 -s 19 -x 32.433242 -y 62.705081 -U 0.000000 -V 0.000000 -T 0.000000
n -t 2.000000 -s 3 -x 31.134794 -y 23.183772 -U 0.000000 -V 0.000000 -T 0.000000
n -t 2.000000 -s 13 -x 52.258918 -y 27.608966 -U 0.000000 -V 0.000000 -T 0.000000
n -t 2.000000 -s 16 -x 7.244657 -y 30.255187 -U 0.000000 -V 0.000000 -T 0.000000
n -t 2.000000 -s 17 -x 48.065148 -y 56.061304 -U 0.000000 -V 0.000000 -T 0.000000
n -t 2.000000 -s 5 -x 44.302945 -y 62.230999 -U 0.000000 -V 0.000000 -T 0.000000
n -t 2.000000 -s 2 -x 51.757280 -y 54.510434 -U 0.000000 -V 0.000000 -T 0.000000
n -t 2.000000 -s 15 -x 26.901473 -y 79.886710 -U 0.000000 -V 0.000000 -T 0.000000
n -t 2.000000 -s 6 -x 62.623591 -y 66.180908 -U 0.000000 -V 0.000000 -T 0.000000
n -t 2.000000 -s 19 -x 32.433242 -y 62.705081 -U -0.236901 -V -0.971534 -T 17.446129
n -t 2.000000 -s 3 -x 31.134794 -y 23.183772 -U -0.318723 -V 0.947848 -T 8.893485
n -t 2.000000 -s 13 -x 52.258918 -y 27.608966 -U -0.925923 -V 0.377713 -T 10.601908
n -t 2.000000 -s 16 -x 7.244657 -y 30.255187 -U 0.981242 -V 0.192781 -T 7.045604
n -t 2.000000 -s 17 -x 48.065148 -y 56.061304 -U -0.478949 -V -0.877843 -T 11.739830
n -t 2.000000 -s 5 -x 44.302945 -y 62.230999 -U -0.877494 -V -0.479587 -T 34.353330
n -t 2.000000 -s 2 -x 51.757280 -y 54.510434 -U -0.865650 -V 0.500649 -T 10.760592
n -t 2.000000 -s 15 -x 26.901473 -y 79.886710 -U -0.537569 -V -0.843220 -T 23.705560
n -t 2.000000 -s 6 -x 62.623591 -y 66.180908 -U -0.983654 -V -0.180067 -T 34.893715
n -t 2.000000 -s 19 -x 32.433242 -y 62.705081 -U -0.236901 -V -0.971534 -T 12.446129
n -t 3.000000 -s 19 -x 32.196341 -y 61.733547 -U 0.000000 -V 0.000000 -T 0.000000
n -t 3.000000 -s 3 -x 30.816070 -y 24.131619 -U 0.000000 -V 0.000000 -T 0.000000
n -t 3.000000 -s 13 -x 51.332995 -y 27.986678 -U 0.000000 -V 0.000000 -T 0.000000
n -t 3.000000 -s 16 -x 8.225899 -y 30.447967 -U 0.000000 -V 0.000000 -T 0.000000
n -t 3.000000 -s 17 -x 47.586199 -y 55.183461 -U 0.000000 -V 0.000000 -T 0.000000
n -t 3.000000 -s 5 -x 43.425451 -y 61.751412 -U 0.000000 -V 0.000000 -T 0.000000
n -t 3.000000 -s 2 -x 50.891630 -y 55.011083 -U 0.000000 -V 0.000000 -T 0.000000
n -t 3.000000 -s 15 -x 26.363904 -y 79.043490 -U 0.000000 -V 0.000000 -T 0.000000
n -t 3.000000 -s 6 -x 61.639937 -y 66.000841 -U 0.000000 -V 0.000000 -T 0.000000
n -t 3.000000 -s 19 -x 32.196341 -y 61.733547 -U -0.238500 -V -0.971143 -T 19.100146
n -t 3.000000 -s 3 -x 30.816070 -y 24.131619 -U -0.542952 -V 0.839764 -T 5.847866
n -t 3.000000 -s 13 -x 51.332995 -y 27.986678 -U -0.993944 -V 0.109883 -T 9.608080
n -t 3.000000 -s 16 -x 8.225899 -y 30.447967 -U 0.966262 -V -0.257561 -T 5.457036
n -t 3.000000 -s 17 -x 47.586199 -y 55.183461 -U -0.435390 -V -0.900242 -T 13.328507
n -t 3.000000 -s 5 -x 43.425451 -y 61.751412 -U -0.849746 -V -0.527192 -T 35.218320
n -t 3.000000 -s 2 -x 50.891630 -y 55.011083 -U -0.969171 -V 0.246389 -T 9.398273
n -t 3.000000 -s 15 -x 26.363904 -y 79.043490 -U -0.509682 -V -0.860363 -T 25.241403
n -t 3.000000 -s 6 -x 61.639937 -y 66.000841 -U -0.968962 -V -0.247210 -T 35.088043
n -t 3.000000 -s 3 -x 30.816070 -y 24.131619 -U -0.256151 -V 0.966637 -T 12.395448
n -t 3.000000 -s 19 -x 32.196341 -y 61.733547 -U -0.238500 -V -0.971143 -T 14.100146
n -t 4.000000 -s 19 -x 31.957841 -y 60.762405 -U 0.000000 -V 0.000000 -T 0.000000
n -t 4.000000 -s 3 -x 30.559919 -y 25.098256 -U 0.000000 -V 0.000000 -T 0.000000
n -t 4.000000 -s 13 -x 50.339050 -y 28.096562 -U 0.000000 -V 0.000000 -T 0.000000
n -t 4.000000 -s 16 -x 9.192161 -y 30.190406 -U 0.000000 -V 0.000000 -T 0.000000
n -t 4.000000 -s 17 -x 47.150809 -y 54.283219 -U 0.000000 -V 0.000000 -T 0.000000
n -t 4.000000 -s 5 -x 42.575705 -y 61.224220 -U 0.000000 -V 0.000000 -T 0.000000
n -t 4.000000 -s 2 -x 49.922459 -y 55.257473 -U 0.000000 -V 0.000000 -T 0.000000
n -t 4.000000 -s 15 -x 25.854223 -y 78.183127 -U 0.000000 -V 0.000000 -T 0.000000
n -t 4.000000 -s 6 -x 60.670975 -y 65.753631 -U 0.000000 -V 0.000000 -T 0.000000
n -t 4.000000 -s 3 -x 30.559919 -y 25.098256 -U -0.224727 -V 0.974422 -T 15.922600
n -t 4.000000 -s 18 -x 42.415440 -y 18.326020 -U -0.884389 -V 0.466751 -T 17.451325
n -t 4.000000 -s 13 -x 50.339050 -y 28.096562 -U -0.984804 -V -0.173671 -T 9.357424
n -t 4.000000 -s 16 -x 9.192161 -y 30.190406 -U 0.700204 -V -0.713943 -T 5.209040
n -t 4.000000 -s 17 -x 47.150809 -y 54.283219 -U -0.403431 -V -0.915010 -T 14.939324
n -t 4.000000 -s 19 -x 31.957841 -y 60.762405 -U -0.688312 -V -0.725414 -T 27.775598
n -t 4.000000 -s 5 -x 42.575705 -y 61.224220 -U -0.219005 -V -0.975724 -T 6.629436
n -t 4.000000 -s 15 -x 25.854223 -y 78.183127 -U -0.485627 -V -0.874166 -T 26.799719
n -t 4.000000 -s 2 -x 49.922459 -y 55.257473 -U -0.999761 -V -0.021866 -T 22.946257
n -t 4.000000 -s 3 -x 30.559919 -y 25.098256 -U -0.224727 -V 0.974422 -T 10.922600
n -t 5.000000 -s 3 -x 30.335193 -y 26.072678 -U 0.000000 -V 0.000000 -T 0.000000
n -t 5.000000 -s 18 -x 41.531051 -y 18.792771 -U 0.000000 -V 0.000000 -T 0.000000
n -t 5.000000 -s 13 -x 49.354247 -y 27.922891 -U 0.000000 -V 0.000000 -T 0.000000
n -t 5.000000 -s 16 -x 9.892365 -y 29.476464 -U 0.000000 -V 0.000000 -T 0.000000
n -t 5.000000 -s 17 -x 46.747378 -y 53.368209 -U 0.000000 -V 0.000000 -T 0.000000
n -t 5.000000 -s 19 -x 31.269529 -y 60.036990 -U 0.000000 -V 0.000000 -T 0.000000
n -t 5.000000 -s 5 -x 42.356700 -y 60.248496 -U 0.000000 -V 0.000000 -T 0.000000
n -t 5.000000 -s 15 -x 25.368596 -y 77.308961 -U 0.000000 -V 0.000000 -T 0.000000
n -t 5.000000 -s 2 -x 48.922698 -y 55.235606 -U 0.000000 -V 0.000000 -T 0.000000
n -t 5.000000 -s 3 -x 30.335193 -y 26.072678 -U -0.317853 -V 0.948140 -T 12.624626
n -t 5.000000 -s 18 -x 41.531051 -y 18.792771 -U -0.947968 -V 0.318366 -T 16.043411
n -t 5.000000 -s 13 -x 49.354247 -y 27.922891 -U -0.911073 -V -0.412245 -T 9.757391
n -t 5.000000 -s 16 -x 9.892365 -y 29.476464 -U 0.379602 -V -0.925150 -T 6.027141
n -t 5.000000 -s 17 -x 46.747378 -y 53.368209 -U -0.379318 -V -0.925266 -T 16.563469
n -t 5.000000 -s 19 -x 31.269529 -y 60.036990 -U -0.655468 -V -0.755223 -T 29.123067
n -t 5.000000 -s 5 -x 42.356700 -y 60.248496 -U -0.228443 -V -0.973557 -T 8.282790
n -t 5.000000 -s 15 -x 25.368596 -y 77.308961 -U -0.464781 -V -0.885426 -T 28.375321
n -t 5.000000 -s 2 -x 48.922698 -y 55.235606 -U -0.991011 -V -0.133780 -T 22.805277
n -t 5.000000 -s 3 -x 30.335193 -y 26.072678 -U -0.317853 -V 0.948140 -T 7.624626
n -t 6.000000 -s 3 -x 30.017340 -y 27.020818 -U 0.000000 -V 0.000000 -T 0.000000
n -t 6.000000 -s 18 -x 40.583084 -y 19.111138 -U 0.000000 -V 0.000000 -T 0.000000
n -t 6.000000 -s 13 -x 48.443174 -y 27.510646 -U 0.000000 -V 0.000000 -T 0.000000
n -t 6.000000 -s 16 -x 10.271967 -y 28.551314 -U 0.000000 -V 0.000000 -T 0.000000
n -t 6.000000 -s 17 -x 46.368060 -y 52.442943 -U 0.000000 -V 0.000000 -T 0.000000
n -t 6.000000 -s 19 -x 30.614060 -y 59.281768 -U 0.000000 -V 0.000000 -T 0.000000
n -t 6.000000 -s 5 -x 42.128257 -y 59.274939 -U 0.000000 -V 0.000000 -T 0.000000
n -t 6.000000 -s 15 -x 24.903814 -y 76.423535 -U 0.000000 -V 0.000000 -T 0.000000
n -t 6.000000 -s 2 -x 47.931687 -y 55.101827 -U 0.000000 -V 0.000000 -T 0.000000
n -t 6.000000 -s 3 -x 30.017340 -y 27.020818 -U -0.458020 -V 0.888942 -T 9.506559
n -t 6.000000 -s 18 -x 40.583084 -y 19.111138 -U -0.989127 -V 0.147065 -T 15.083952
n -t 6.000000 -s 13 -x 48.443174 -y 27.510646 -U -0.813232 -V -0.581940 -T 10.621691
n -t 6.000000 -s 16 -x 10.271967 -y 28.551314 -U 0.170423 -V -0.985371 -T 7.329072
n -t 6.000000 -s 17 -x 46.368060 -y 52.442943 -U -0.360670 -V -0.932693 -T 18.196065
n -t 6.000000 -s 19 -x 30.614060 -y 59.281768 -U -0.625592 -V -0.780150 -T 30.519978
n -t 6.000000 -s 2 -x 47.931687 -y 55.101827 -U -0.828718 -V -0.559667 -T 9.806005
n -t 6.000000 -s 15 -x 24.903814 -y 76.423535 -U -0.446624 -V -0.894722 -T 29.964399
n -t 6.000000 -s 5 -x 42.128257 -y 59.274939 -U -0.862487 -V -0.506080 -T 19.090284
n -t 6.000000 -s 3 -x 30.017340 -y 27.020818 -U -0.458020 -V 0.888942 -T 4.506559
n -t 6.000000 -s 18 -x 40.583084 -y 19.111138 -U 0.000000 -V 0.000000 -T 0.000000
n -t 6.000000 -s 13 -x 48.443174 -y 27.510646 -U 0.000000 -V 0.000000 -T 0.000000
n -t 6.000000 -s 16 -x 10.271967 -y 28.551314 -U 0.000000 -V 0.000000 -T 0.000000
n -t 6.000000 -s 17 -x 46.368060 -y 52.442943 -U 0.000000 -V 0.000000 -T 0.000000
n -t 6.000000 -s 19 -x 30.614060 -y 59.281768 -U 0.000000 -V 0.000000 -T 0.000000
n -t 6.000000 -s 2 -x 47.931687 -y 55.101827 -U 0.000000 -V 0.000000 -T 0.000000
n -t 6.000000 -s 15 -x 24.903814 -y 76.423535 -U 0.000000 -V 0.000000 -T 0.000000
n -t 6.000000 -s 5 -x 42.128257 -y 59.274939 -U 0.000000 -V 0.000000 -T 0.000000
n -t 7.000000 -s 3 -x 29.559319 -y 27.909760 -U -0.674156 -V 0.738589 -T 1.757262
n -t 7.000000 -s 18 -x 40.583084 -y 19.111138 -U 0.000000 -V 0.000000 -T 0.000000
n -t 7.000000 -s 13 -x 48.443174 -y 27.510646 -U 0.000000 -V 0.000000 -T 0.000000
n -t 7.000000 -s 16 -x 10.271967 -y 28.551314 -U 0.000000 -V 0.000000 -T 0.000000
n -t 7.000000 -s 17 -x 46.368060 -y 52.442943 -U 0.000000 -V 0.000000 -T 0.000000
n -t 7.000000 -s 19 -x 30.614060 -y 59.281768 -U 0.000000 -V 0.000000 -T 0.000000
n -t 7.000000 -s 2 -x 47.931687 -y 55.101827 -U 0.000000 -V 0.000000 -T 0.000000
n -t 7.000000 -s 15 -x 24.903814 -y 76.423535 -U 0.000000 -V 0.000000 -T 0.000000
n -t 7.000000 -s 5 -x 42.128257 -y 59.274939 -U 0.000000 -V 0.000000 -T 0.000000
n -t 8.000000 -s 18 -x 40.583084 -y 19.111138 -U 0.000000 -V 0.000000 -T 0.000000
n -t 8.000000 -s 13 -x 48.443174 -y 27.510646 -U 0.000000 -V 0.000000 -T 0.000000
n -t 8.000000 -s 16 -x 10.271967 -y 28.551314 -U 0.000000 -V 0.000000 -T 0.000000
n -t 8.000000 -s 17 -x 46.368060 -y 52.442943 -U 0.000000 -V 0.000000 -T 0.000000
n -t 8.000000 -s 19 -x 30.614060 -y 59.281768 -U 0.000000 -V 0.000000 -T 0.000000
n -t 8.000000 -s 2 -x 47.931687 -y 55.101827 -U 0.000000 -V 0.000000 -T 0.000000
n -t 8.000000 -s 15 -x 24.903814 -y 76.423535 -U 0.000000 -V 0.000000 -T 0.000000
n -t 8.000000 -s 5 -x 42.128257 -y 59.274939 -U 0.000000 -V 0.000000 -T 0.000000
n -t 9.000000 -s 3 -x 28.374650 -y 29.207654 -U 0.000000 -V 0.000000 -T 0.000000
n -t 9.000000 -s 18 -x 40.583084 -y 19.111138 -U 0.000000 -V 0.000000 -T 0.000000
n -t 9.000000 -s 13 -x 48.443174 -y 27.510646 -U 0.000000 -V 0.000000 -T 0.000000
n -t 9.000000 -s 16 -x 10.271967 -y 28.551314 -U 0.000000 -V 0.000000 -T 0.000000
n -t 9.000000 -s 17 -x 46.368060 -y 52.442943 -U 0.000000 -V 0.000000 -T 0.000000
n -t 9.000000 -s 19 -x 30.614060 -y 59.281768 -U 0.000000 -V 0.000000 -T 0.000000
n -t 9.000000 -s 2 -x 47.931687 -y 55.101827 -U 0.000000 -V 0.000000 -T 0.000000
n -t 9.000000 -s 15 -x 24.903814 -y 76.423535 -U 0.000000 -V 0.000000 -T 0.000000
n -t 9.000000 -s 5 -x 42.128257 -y 59.274939 -U 0.000000 -V 0.000000 -T 0.000000
n -t 9.000000 -s 3 -x 28.374650 -y 29.207654 -U -0.955425 -V -0.295235 -T 4.908108
n -t 9.000000 -s 18 -x 40.583084 -y 19.111138 -U -0.950986 -V -0.309233 -T 17.768671
n -t 9.000000 -s 10 -x 42.604070 -y 0.208018 -U -0.335581 -V 0.942011 -T 14.233854
n -t 9.000000 -s 16 -x 10.271967 -y 28.551314 -U -0.048739 -V -0.998812 -T 14.952613
n -t 9.000000 -s 13 -x 48.443174 -y 27.510646 -U -0.999727 -V 0.023352 -T 10.618610
n -t 9.000000 -s 19 -x 30.614060 -y 59.281768 -U -0.555712 -V -0.831375 -T 37.916900
n -t 9.000000 -s 17 -x 46.368060 -y 52.442943 -U -0.629485 -V -0.777013 -T 13.567603
n -t 9.000000 -s 5 -x 42.128257 -y 59.274939 -U -0.882404 -V -0.470493 -T 36.927624
n -t 9.000000 -s 2 -x 47.931687 -y 55.101827 -U -0.878264 -V -0.478176 -T 27.607151
n -t 9.000000 -s 18 -x 40.583084 -y 19.111138 -U 0.000000 -V 0.000000 -T 0.000000
n -t 9.000000 -s 10 -x 42.604070 -y 0.208018 -U 0.000000 -V 0.000000 -T 0.000000
n -t 9.000000 -s 16 -x 10.271967 -y 28.551314 -U 0.000000 -V 0.000000 -T 0.000000
n -t 9.000000 -s 13 -x 48.443174 -y 27.510646 -U 0.000000 -V 0.000000 -T 0.000000
n -t 9.000000 -s 19 -x 30.614060 -y 59.281768 -U 0.000000 -V 0.000000 -T 0.000000
n -t 9.000000 -s 17 -x 46.368060 -y 52.442943 -U 0.000000 -V 0.000000 -T 0.000000
n -t 9.000000 -s 5 -x 42.128257 -y 59.274939 -U 0.000000 -V 0.000000 -T 0.000000
n -t 9.000000 -s 2 -x 47.931687 -y 55.101827 -U 0.000000 -V 0.000000 -T 0.000000
n -t 10.000000 -s 3 -x 27.419226 -y 28.912419 -U -0.762743 -V -0.646701 -T 0.759703
n -t 10.000000 -s 18 -x 40.583084 -y 19.111138 -U 0.000000 -V 0.000000 -T 0.000000
n -t 10.000000 -s 10 -x 42.604070 -y 0.208018 -U 0.000000 -V 0.000000 -T 0.000000
n -t 10.000000 -s 16 -x 10.271967 -y 28.551314 -U 0.000000 -V 0.000000 -T 0.000000
n -t 10.000000 -s 13 -x 48.443174 -y 27.510646 -U 0.000000 -V 0.000000 -T 0.000000
n -t 10.000000 -s 19 -x 30.614060 -y 59.281768 -U 0.000000 -V 0.000000 -T 0.000000
n -t 10.000000 -s 17 -x 46.368060 -y 52.442943 -U 0.000000 -V 0.000000 -T 0.000000
n -t 10.000000 -s 5 -x 42.128257 -y 59.274939 -U 0.000000 -V 0.000000 -T 0.000000
n -t 10.000000 -s 2 -x 47.931687 -y 55.101827 -U 0.000000 -V 0.000000 -T 0.000000
n -t 11.000000 -s 3 -x 26.839767 -y 28.421118 -U -0.610395 -V -0.792097 -T 2.328021
n -t 11.000000 -s 18 -x 40.583084 -y 19.111138 -U 0.000000 -V 0.000000 -T 0.000000
n -t 11.000000 -s 10 -x 42.604070 -y 0.208018 -U 0.000000 -V 0.000000 -T 0.000000
n -t 11.000000 -s 16 -x 10.271967 -y 28.551314 -U 0.000000 -V 0.000000 -T 0.000000
n -t 11.000000 -s 13 -x 48.443174 -y 27.510646 -U 0.000000 -V 0.000000 -T 0.000000
n -t 11.000000 -s 19 -x 30.614060 -y 59.281768 -U 0.000000 -V 0.000000 -T 0.000000
n -t 11.000000 -s 17 -x 46.368060 -y 52.442943 -U 0.000000 -V 0.000000 -T 0.000000
n -t 11.000000 -s 5 -x 42.128257 -y 59.274939 -U 0.000000 -V 0.000000 -T 0.000000
n -t 11.000000 -s 2 -x 47.931687 -y 55.101827 -U 0.000000 -V 0.000000 -T 0.000000
n -t 12.000000 -s 3 -x 26.229372 -y 27.629021 -U 0.000000 -V 0.000000 -T 0.000000
n -t 12.000000 -s 18 -x 40.583084 -y 19.111138 -U 0.000000 -V 0.000000 -T 0.000000
n -t 12.000000 -s 10 -x 42.604070 -y 0.208018 -U 0.000000 -V 0.000000 -T 0.000000
n -t 12.000000 -s 16 -x 10.271967 -y 28.551314 -U 0.000000 -V 0.000000 -T 0.000000
n -t 12.000000 -s 13 -x 48.443174 -y 27.510646 -U 0.000000 -V 0.000000 -T 0.000000
n -t 12.000000 -s 19 -x 30.614060 -y 59.281768 -U 0.000000 -V 0.000000 -T 0.000000
n -t 12.000000 -s 17 -x 46.368060 -y 52.442943 -U 0.000000 -V 0.000000 -T 0.000000
n -t 12.000000 -s 5 -x 42.128257 -y 59.274939 -U 0.000000 -V 0.000000 -T 0.000000
n -t 12.000000 -s 2 -x 47.931687 -y 55.101827 -U 0.000000 -V 0.000000 -T 0.000000
n -t 12.000000 -s 3 -x 26.229372 -y 27.629021 -U -0.512147 -V -0.858898 -T 8.829228
n -t 12.000000 -s 10 -x 42.604070 -y 0.208018 -U -0.964806 -V 0.262963 -T 21.658826
n -t 12.000000 -s 18 -x 40.583084 -y 19.111138 -U -0.337374 -V -0.941371 -T 14.030240
n -t 12.000000 -s 16 -x 10.271967 -y 28.551314 -U -0.118664 -V -0.992935 -T 22.808987
n -t 12.000000 -s 13 -x 48.443174 -y 27.510646 -U -0.860226 -V -0.509913 -T 14.639799
n -t 12.000000 -s 19 -x 30.614060 -y 59.281768 -U -0.506507 -V -0.862236 -T 45.505137
n -t 12.000000 -s 17 -x 46.368060 -y 52.442943 -U -0.499244 -V -0.866461 -T 21.068674
n -t 12.000000 -s 9 -x 56.313660 -y 2.193633 -U -0.836024 -V 0.548693 -T 58.309687
n -t 12.000000 -s 3 -x 26.229372 -y 27.629021 -U -0.512147 -V -0.858898 -T 3.829228
n -t 12.000000 -s 10 -x 42.604070 -y 0.208018 -U 0.000000 -V 0.000000 -T 0.000000
n -t 12.000000 -s 18 -x 40.583084 -y 19.111138 -U 0.000000 -V 0.000000 -T 0.000000
n -t 12.000000 -s 16 -x 10.271967 -y 28.551314 -U 0.000000 -V 0.000000 -T 0.000000
n -t 12.000000 -s 13 -x 48.443174 -y 27.510646 -U 0.000000 -V 0.000000 -T 0.000000
n -t 12.000000 -s 19 -x 30.614060 -y 59.281768 -U 0.000000 -V 0.000000 -T 0.000000
n -t 12.000000 -s 17 -x 46.368060 -y 52.442943 -U 0.000000 -V 0.000000 -T 0.000000
n -t 12.000000 -s 9 -x 56.313660 -y 2.193633 -U 0.000000 -V 0.000000 -T 0.000000
n -t 13.000000 -s 3 -x 25.717224 -y 26.770123 -U -0.448847 -V -0.893609 -T 5.402202
n -t 14.000000 -s 3 -x 25.268378 -y 25.876514 -U 0.000000 -V 0.000000 -T 0.000000
n -t 14.000000 -s 10 -x 42.604070 -y 0.208018 -U 0.000000 -V 0.000000 -T 0.000000
n -t 14.000000 -s 18 -x 40.583084 -y 19.111138 -U 0.000000 -V 0.000000 -T 0.000000
n -t 14.000000 -s 16 -x 10.271967 -y 28.551314 -U 0.000000 -V 0.000000 -T 0.000000
n -t 14.000000 -s 13 -x 48.443174 -y 27.510646 -U 0.000000 -V 0.000000 -T 0.000000
n -t 14.000000 -s 19 -x 30.614060 -y 59.281768 -U 0.000000 -V 0.000000 -T 0.000000
n -t 14.000000 -s 17 -x 46.368060 -y 52.442943 -U 0.000000 -V 0.000000 -T 0.000000
n -t 14.000000 -s 9 -x 56.313660 -y 2.193633 -U 0.000000 -V 0.000000 -T 0.000000
n -t 14.000000 -s 3 -x 25.268378 -y 25.876514 -U -0.406318 -V -0.913732 -T 12.008871
n -t 14.000000 -s 10 -x 42.604070 -y 0.208018 -U -0.999690 -V 0.024907 -T 22.222004
n -t 14.000000 -s 18 -x 40.583084 -y 19.111138 -U -0.313219 -V -0.949681 -T 19.321907
n -t 14.000000 -s 16 -x 10.271967 -y 28.551314 -U -0.143347 -V -0.989673 -T 28.079815
n -t 14.000000 -s 13 -x 48.443174 -y 27.510646 -U -0.741008 -V -0.671496 -T 18.774527
n -t 14.000000 -s 9 -x 56.313660 -y 2.193633 -U -0.969256 -V 0.246056 -T 51.654933
n -t 14.000000 -s 3 -x 25.268378 -y 25.876514 -U -0.406318 -V -0.913732 -T 7.008871
n -t 15.000000 -s 3 -x 24.862060 -y 24.962782 -U 0.000000 -V 0.000000 -T 0.000000
n -t 15.000000 -s 10 -x 41.604380 -y 0.232925 -U 0.000000 -V 0.000000 -T 0.000000
n -t 15.000000 -s 18 -x 40.269865 -y 18.161457 -U 0.000000 -V 0.000000 -T 0.000000
n -t 15.000000 -s 16 -x 10.128621 -y 27.561641 -U 0.000000 -V 0.000000 -T 0.000000
n -t 15.000000 -s 13 -x 47.702165 -y 26.839150 -U 0.000000 -V 0.000000 -T 0.000000
n -t 15.000000 -s 9 -x 55.344404 -y 2.439689 -U 0.000000 -V 0.000000 -T 0.000000
n -t 15.000000 -s 3 -x 24.862060 -y 24.962782 -U -0.376464 -V -0.926431 -T 13.633121
n -t 15.000000 -s 10 -x 41.604380 -y 0.232925 -U -0.999943 -V -0.010648 -T 21.875934
n -t 15.000000 -s 18 -x 40.269865 -y 18.161457 -U -0.332271 -V -0.943184 -T 19.255479
n -t 15.000000 -s 16 -x 10.128621 -y 27.561641 -U -0.162569 -V -0.986697 -T 27.933231
n -t 15.000000 -s 13 -x 47.702165 -y 26.839150 -U -0.690037 -V -0.723774 -T 20.042891
n -t 15.000000 -s 9 -x 55.344404 -y 2.439689 -U -0.980802 -V 0.195009 -T 50.730807
n -t 15.000000 -s 3 -x 24.862060 -y 24.962782 -U -0.376464 -V -0.926431 -T 8.633121
n -t 16.000000 -s 3 -x 24.485597 -y 24.036351 -U 0.000000 -V 0.000000 -T 0.000000
n -t 16.000000 -s 10 -x 40.604437 -y 0.222277 -U 0.000000 -V 0.000000 -T 0.000000
n -t 16.000000 -s 18 -x 39.937593 -y 17.218273 -U 0.000000 -V 0.000000 -T 0.000000
n -t 16.000000 -s 16 -x 9.966052 -y 26.574944 -U 0.000000 -V 0.000000 -T 0.000000
n -t 16.000000 -s 13 -x 47.012128 -y 26.115376 -U 0.000000 -V 0.000000 -T 0.000000
n -t 16.000000 -s 9 -x 54.363603 -y 2.634697 -U 0.000000 -V 0.000000 -T 0.000000
n -t 16.000000 -s 3 -x 24.485597 -y 24.036351 -U -0.354691 -V -0.934984 -T 15.267342
n -t 16.000000 -s 10 -x 40.604437 -y 0.222277 -U -0.999947 -V -0.010322 -T 21.535171
n -t 16.000000 -s 18 -x 39.937593 -y 17.218273 -U -0.363811 -V -0.931473 -T 18.484998
n -t 16.000000 -s 16 -x 9.966052 -y 26.574944 -U -0.186252 -V -0.982502 -T 27.048231
n -t 16.000000 -s 13 -x 47.012128 -y 26.115376 -U -0.644901 -V -0.764266 -T 21.397973
n -t 16.000000 -s 9 -x 54.363603 -y 2.634697 -U -0.989767 -V 0.142692 -T 49.946417
n -t 16.000000 -s 3 -x 24.485597 -y 24.036351 -U -0.354691 -V -0.934984 -T 10.267342
n -t 17.000000 -s 3 -x 24.130906 -y 23.101367 -U 0.000000 -V 0.000000 -T 0.000000
n -t 17.000000 -s 10 -x 39.604490 -y 0.211956 -U 0.000000 -V 0.000000 -T 0.000000
n -t 17.000000 -s 18 -x 39.573782 -y 16.286800 -U 0.000000 -V 0.000000 -T 0.000000
n -t 17.000000 -s 16 -x 9.779800 -y 25.592442 -U 0.000000 -V 0.000000 -T 0.000000
n -t 17.000000 -s 13 -x 46.367227 -y 25.351110 -U 0.000000 -V 0.000000 -T 0.000000
n -t 17.000000 -s 9 -x 53.373836 -y 2.777389 -U 0.000000 -V 0.000000 -T 0.000000
n -t 17.000000 -s 3 -x 24.130906 -y 23.101367 -U -0.338295 -V -0.941040 -T 16.907601
n -t 17.000000 -s 10 -x 39.604490 -y 0.211956 -U -0.999950 -V -0.010001 -T 21.194410
n -t 17.000000 -s 18 -x 39.573782 -y 16.286800 -U -0.395845 -V -0.918317 -T 17.735483
n -t 17.000000 -s 16 -x 9.779800 -y 25.592442 -U -0.210504 -V -0.977593 -T 26.179036
n -t 17.000000 -s 9 -x 53.373836 -y 2.777389 -U -0.978265 -V 0.207359 -T 21.283150
n -t 17.000000 -s 13 -x 46.367227 -y 25.351110 -U -0.918208 -V -0.396099 -T 45.848261
n -t 17.000000 -s 3 -x 24.130906 -y 23.101367 -U -0.338295 -V -0.941040 -T 11.907601
n -t 18.000000 -s 3 -x 23.792610 -y 22.160327 -U 0.000000 -V 0.000000 -T 0.000000
n -t 18.000000 -s 10 -x 38.604540 -y 0.201955 -U 0.000000 -V 0.000000 -T 0.000000
n -t 18.000000 -s 18 -x 39.177937 -y 15.368483 -U 0.000000 -V 0.000000 -T 0.000000
n -t 18.000000 -s 16 -x 9.569296 -y 24.614849 -U 0.000000 -V 0.000000 -T 0.000000
n -t 18.000000 -s 9 -x 52.395571 -y 2.984748 -U 0.000000 -V 0.000000 -T 0.000000
n -t 18.000000 -s 13 -x 45.449019 -y 24.955011 -U 0.000000 -V 0.000000 -T 0.000000
n -t 18.000000 -s 3 -x 23.792610 -y 22.160327 -U -0.329260 -V -0.944239 -T 17.706976
n -t 18.000000 -s 10 -x 38.604540 -y 0.201955 -U -0.999952 -V -0.009783 -T 20.643118
n -t 18.000000 -s 18 -x 39.177937 -y 15.368483 -U -0.418095 -V -0.908403 -T 16.918130
n -t 18.000000 -s 16 -x 9.569296 -y 24.614849 -U -0.227438 -V -0.973793 -T 25.277303
n -t 18.000000 -s 9 -x 52.395571 -y 2.984748 -U -0.992755 -V 0.120160 -T 20.439115
n -t 18.000000 -s 13 -x 45.449019 -y 24.955011 -U -0.905452 -V -0.424449 -T 45.975651
n -t 18.000000 -s 3 -x 23.792610 -y 22.160327 -U -0.329260 -V -0.944239 -T 12.706976
n -t 19.000000 -s 3 -x 23.463350 -y 21.216088 -U 0.000000 -V 0.000000 -T 0.000000
n -t 19.000000 -s 10 -x 37.604588 -y 0.192172 -U 0.000000 -V 0.000000 -T 0.000000
n -t 19.000000 -s 18 -x 38.759842 -y 14.460080 -U 0.000000 -V 0.000000 -T 0.000000
n -t 19.000000 -s 16 -x 9.341858 -y 23.641056 -U 0.000000 -V 0.000000 -T 0.000000
n -t 19.000000 -s 9 -x 51.402816 -y 3.104908 -U 0.000000 -V 0.000000 -T 0.000000
n -t 19.000000 -s 13 -x 44.543567 -y 24.530562 -U 0.000000 -V 0.000000 -T 0.000000
n -t 19.000000 -s 3 -x 23.463350 -y 21.216088 -U -0.329260 -V -0.944239 -T 16.706976
n -t 19.000000 -s 10 -x 37.604588 -y 0.192172 -U -0.999952 -V -0.009783 -T 19.643118
n -t 19.000000 -s 18 -x 38.759842 -y 14.460080 -U -0.418095 -V -0.908403 -T 15.918130
n -t 19.000000 -s 16 -x 9.341858 -y 23.641056 -U -0.227438 -V -0.973793 -T 24.277303
n -t 19.000000 -s 9 -x 51.402816 -y 3.104908 -U -0.992755 -V 0.120160 -T 19.439115
n -t 19.000000 -s 13 -x 44.543567 -y 24.530562 -U -0.905452 -V -0.424449 -T 44.975651
n -t 19.000000 -s 3 -x 23.463350 -y 21.216088 -U -0.329260 -V -0.944239 -T 11.706976
n -t 20.000000 -s 3 -x 23.134090 -y 20.271849 -U 0.000000 -V 0.000000 -T 0.000000
n -t 20.000000 -s 10 -x 36.604636 -y 0.182389 -U 0.000000 -V 0.000000 -T 0.000000
n -t 20.000000 -s 18 -x 38.341747 -y 13.551677 -U 0.000000 -V 0.000000 -T 0.000000
n -t 20.000000 -s 16 -x 9.114420 -y 22.667264 -U 0.000000 -V 0.000000 -T 0.000000
n -t 20.000000 -s 9 -x 50.410061 -y 3.225067 -U 0.000000 -V 0.000000 -T 0.000000
n -t 20.000000 -s 13 -x 43.638115 -y 24.106113 -U 0.000000 -V 0.000000 -T 0.000000
n -t 20.000000 -s 3 -x 23.134090 -y 20.271849 -U -0.329260 -V -0.944239 -T 15.706976
n -t 20.000000 -s 10 -x 36.604636 -y 0.182389 -U -0.999952 -V -0.009783 -T 18.643118
n -t 20.000000 -s 18 -x 38.341747 -y 13.551677 -U -0.418095 -V -0.908403 -T 14.918130
n -t 20.000000 -s 16 -x 9.114420 -y 22.667264 -U -0.227438 -V -0.973793 -T 23.277303
n -t 20.000000 -s 9 -x 50.410061 -y 3.225067 -U -0.992755 -V 0.120160 -T 18.439115
n -t 20.000000 -s 13 -x 43.638115 -y 24.106113 -U -0.905452 -V -0.424449 -T 43.975651
n -t 20.000000 -s 3 -x 23.134090 -y 20.271849 -U -0.329260 -V -0.944239 -T 10.706976
n -t 21.000000 -s 3 -x 22.804830 -y 19.327610 -U 0.000000 -V 0.000000 -T 0.000000
n -t 21.000000 -s 10 -x 35.604684 -y 0.172606 -U 0.000000 -V 0.000000 -T 0.000000
n -t 21.000000 -s 18 -x 37.923651 -y 12.643274 -U 0.000000 -V 0.000000 -T 0.000000
n -t 21.000000 -s 16 -x 8.886982 -y 21.693471 -U 0.000000 -V 0.000000 -T 0.000000
n -t 21.000000 -s 9 -x 49.417307 -y 3.345227 -U 0.000000 -V 0.000000 -T 0.000000
n -t 21.000000 -s 13 -x 42.732663 -y 23.681665 -U 0.000000 -V 0.000000 -T 0.000000
n -t 21.000000 -s 3 -x 22.804830 -y 19.327610 -U -0.329260 -V -0.944239 -T 14.706976
n -t 21.000000 -s 10 -x 35.604684 -y 0.172606 -U -0.999952 -V -0.009783 -T 17.643118
n -t 21.000000 -s 18 -x 37.923651 -y 12.643274 -U -0.418095 -V -0.908403 -T 13.918130
n -t 21.000000 -s 16 -x 8.886982 -y 21.693471 -U -0.227438 -V -0.973793 -T 22.277303
n -t 21.000000 -s 9 -x 49.417307 -y 3.345227 -U -0.992755 -V 0.120160 -T 17.439115
n -t 21.000000 -s 13 -x 42.732663 -y 23.681665 -U -0.905452 -V -0.424449 -T 42.975651
n -t 21.000000 -s 3 -x 22.804830 -y 19.327610 -U -0.329260 -V -0.944239 -T 9.706976
n -t 22.000000 -s 3 -x 22.475570 -y 18.383370 -U 0.000000 -V 0.000000 -T 0.000000
n -t 22.000000 -s 10 -x 34.604732 -y 0.162823 -U 0.000000 -V 0.000000 -T 0.000000
n -t 22.000000 -s 18 -x 37.505556 -y 11.734870 -U 0.000000 -V 0.000000 -T 0.000000
n -t 22.000000 -s 16 -x 8.659544 -y 20.719679 -U 0.000000 -V 0.000000 -T 0.000000
n -t 22.000000 -s 9 -x 48.424552 -y 3.465387 -U 0.000000 -V 0.000000 -T 0.000000
n -t 22.000000 -s 13 -x 41.827211 -y 23.257216 -U 0.000000 -V 0.000000 -T 0.000000
n -t 22.000000 -s 3 -x 22.475570 -y 18.383370 -U -0.329260 -V -0.944239 -T 13.706976
n -t 22.000000 -s 10 -x 34.604732 -y 0.162823 -U -0.999952 -V -0.009783 -T 16.643118
n -t 22.000000 -s 18 -x 37.505556 -y 11.734870 -U -0.418095 -V -0.908403 -T 12.918130
n -t 22.000000 -s 16 -x 8.659544 -y 20.719679 -U -0.227438 -V -0.973793 -T 21.277303
n -t 22.000000 -s 9 -x 48.424552 -y 3.465387 -U -0.992755 -V 0.120160 -T 16.439115