n -t * -s 0  -x 90.915049999999994 -y 42.157550000000001 -Z 0 -z 1  -v circle -c black
n -t * -s 1  -x 20.161819999999999 -y 52.33766 -Z 0 -z 1  -v circle -c black
n -t * -s 2  -x 70.922730000000001 -y 72.644180000000006 -Z 0 -z 1  -v circle -c black
n -t * -s 3  -x 10.80911 -y 32.199420000000003 -Z 0 -z 1  -v circle -c black
n -t * -s 4  -x 11.38951 -y 47.583629999999999 -Z 0 -z 1  -v circle -c black
n -t * -s 5  -x 15.237259999999999 -y 37.117109999999997 -Z 0 -z 1  -v circle -c black
n -t * -s 6  -x 79.068510000000003 -y 73.192580000000007 -Z 0 -z 1  -v circle -c black
n -t * -s 7  -x 59.000390000000003 -y 18.159780000000001 -Z 0 -z 1  -v circle -c black
n -t * -s 8  -x 67.560230000000004 -y 42.37274 -Z 0 -z 1  -v circle -c black
n -t * -s 9  -x 22.27627 -y 9.7328589999999995 -Z 0 -z 1  -v circle -c black
n -t * -s 10  -x 93.394080000000002 -y 74.663160000000005 -Z 0 -z 1  -v circle -c black
n -t * -s 11  -x 52.295000000000002 -y 61.68235 -Z 0 -z 1  -v circle -c black
n -t * -s 12  -x 13.256489999999999 -y 34.207569999999997 -Z 0 -z 1  -v circle -c black
n -t * -s 13  -x 94.818569999999994 -y 17.292729999999999 -Z 0 -z 1  -v circle -c black
n -t * -s 14  -x 11.38561 -y 43.672260000000001 -Z 0 -z 1  -v circle -c black
n -t * -s 15  -x 97.160470000000004 -y 4.0308929999999998 -Z 0 -z 1  -v circle -c black
n -t * -s 16  -x 61.620489999999997 -y 33.252789999999997 -Z 0 -z 1  -v circle -c black
n -t * -s 17  -x 24.676189999999998 -y 23.598020000000002 -Z 0 -z 1  -v circle -c black
n -t * -s 18  -x 30.394749999999998 -y 72.289330000000007 -Z 0 -z 1  -v circle -c black
n -t * -s 19  -x 2.4304220000000001 -y 57.720170000000003 -Z 0 -z 1  -v circle -c black
n -t * -s 20  -x 13.41039 -y 17.076059999999998 -Z 0 -z 2  -v circle -c black
V -t * -v 1.0a5 -a 0
W -t * -x 100 -y 100
A -t * -n 1 -p 0 -o 0x7fffffff -c 30 -a 1
A -t * -h 1 -m 1073741823 -s 0
n -t 0 -s 20 -S COLOR -c red -o black -i red -I black
n -t 0.000000 -s 20 -x 13.410390 -y 17.076060 -U -0.377127 -V 2.631831 -T 23.461839
n -t 0.000000 -s 1 -x 20.161820 -y 52.337660 -U -0.188051 -V -0.982159 -T 30.902120
n -t 0.000000 -s 3 -x 10.809110 -y 32.199420 -U 0.169515 -V -0.985528 -T 10.345445
n -t 0.000000 -s 4 -x 11.389510 -y 47.583630 -U 0.066097 -V -0.997813 -T 25.574430
n -t 0.000000 -s 5 -x 15.237260 -y 37.117110 -U -0.090780 -V -0.995871 -T 15.124143
n -t 0.000000 -s 9 -x 22.276270 -y 9.732859 -U -0.770142 -V 0.637873 -T 6.512012
n -t 0.000000 -s 12 -x 13.256490 -y 34.207570 -U 0.008983 -V -0.999960 -T 12.132201
n -t 0.000000 -s 14 -x 11.385610 -y 43.672260 -U 0.075911 -V -0.997115 -T 21.673162
n -t 0.000000 -s 17 -x 24.676190 -y 23.598020 -U -0.865438 -V -0.501016 -T 8.017458
n -t 0.000000 -s 19 -x 2.430422 -y 57.720170 -U 0.260800 -V -0.965393 -T 37.101109
n -t 0.000000 -s 9 -x 22.276270 -y 9.732859 -U -0.770142 -V 0.637873 -T 6.512012
n -t 1.000000 -s 1 -x 19.973769 -y 51.355501 -U -0.214215 -V -0.976787 -T 27.399719
n -t 1.000000 -s 3 -x 10.978625 -y 31.213892 -U 0.175790 -V -0.984428 -T 6.688011
n -t 1.000000 -s 4 -x 11.455607 -y 46.585817 -U 0.058596 -V -0.998282 -T 21.924188
n -t 1.000000 -s 5 -x 15.146480 -y 36.121239 -U -0.127696 -V -0.991813 -T 11.548827
n -t 1.000000 -s 9 -x 21.506128 -y 10.370732 -U -0.672001 -V 0.740550 -T 7.608409
n -t 1.000000 -s 12 -x 13.265473 -y 33.207610 -U -0.017199 -V -0.999852 -T 8.501716
n -t 1.000000 -s 14 -x 11.461521 -y 42.675145 -U 0.068274 -V -0.997667 -T 18.020972
n -t 1.000000 -s 17 -x 23.810752 -y 23.097004 -U -0.953946 -V -0.299980 -T 6.297803
n -t 1.000000 -s 19 -x 2.691222 -y 56.754777 -U 0.268880 -V -0.963174 -T 33.463354
n -t 1.000000 -s 17 -x 23.810752 -y 23.097004 -U -0.953946 -V -0.299980 -T 6.297803
n -t 2.000000 -s 1 -x 19.759554 -y 50.378714 -U -0.245582 -V -0.969376 -T 23.924792
n -t 2.000000 -s 3 -x 11.154415 -y 30.229465 -U 0.186982 -V -0.982363 -T 3.031388
n -t 2.000000 -s 4 -x 11.514203 -y 45.587535 -U 0.049061 -V -0.998796 -T 18.275842
n -t 2.000000 -s 5 -x 15.018784 -y 35.129426 -U -0.181657 -V -0.983362 -T 8.006099
n -t 2.000000 -s 9 -x 20.834127 -y 11.111282 -U -0.588730 -V 0.808330 -T 8.890911
n -t 2.000000 -s 12 -x 13.248275 -y 32.207758 -U -0.059898 -V -0.998205 -T 4.885786
n -t 2.000000 -s 14 -x 11.529795 -y 41.677479 -U 0.058147 -V -0.998308 -T 14.370531
n -t 2.000000 -s 17 -x 22.856807 -y 22.797024 -U -0.998997 -V -0.044786 -T 5.210915
n -t 2.000000 -s 19 -x 2.960102 -y 55.791604 -U 0.278392 -V -0.960468 -T 29.828744
n -t 2.000000 -s 3 -x 11.154415 -y 30.229465 -U 0.186982 -V -0.982363 -T 3.031388
n -t 2.000000 -s 1 -x 19.759554 -y 50.378714 -U 0.000000 -V 0.000000 -T 0.000000
n -t 2.000000 -s 4 -x 11.514203 -y 45.587535 -U 0.000000 -V 0.000000 -T 0.000000
n -t 2.000000 -s 5 -x 15.018784 -y 35.129426 -U 0.000000 -V 0.000000 -T 0.000000
n -t 2.000000 -s 9 -x 20.834127 -y 11.111282 -U 0.000000 -V 0.000000 -T 0.000000
n -t 2.000000 -s 12 -x 13.248275 -y 32.207758 -U 0.000000 -V 0.000000 -T 0.000000
n -t 2.000000 -s 14 -x 11.529795 -y 41.677479 -U 0.000000 -V 0.000000 -T 0.000000
n -t 2.000000 -s 17 -x 22.856807 -y 22.797024 -U 0.000000 -V 0.000000 -T 0.000000
n -t 2.000000 -s 19 -x 2.960102 -y 55.791604 -U 0.000000 -V 0.000000 -T 0.000000
n -t 3.000000 -s 1 -x 19.759554 -y 50.378714 -U 0.000000 -V 0.000000 -T 0.000000
n -t 3.000000 -s 4 -x 11.514203 -y 45.587535 -U 0.000000 -V 0.000000 -T 0.000000
n -t 3.000000 -s 5 -x 15.018784 -y 35.129426 -U 0.000000 -V 0.000000 -T 0.000000
n -t 3.000000 -s 9 -x 20.834127 -y 11.111282 -U 0.000000 -V 0.000000 -T 0.000000
n -t 3.000000 -s 12 -x 13.248275 -y 32.207758 -U 0.000000 -V 0.000000 -T 0.000000
n -t 3.000000 -s 14 -x 11.529795 -y 41.677479 -U 0.000000 -V 0.000000 -T 0.000000
n -t 3.000000 -s 17 -x 22.856807 -y 22.797024 -U 0.000000 -V 0.000000 -T 0.000000
n -t 3.000000 -s 19 -x 2.960102 -y 55.791604 -U 0.000000 -V 0.000000 -T 0.000000
n -t 4.000000 -s 1 -x 19.759554 -y 50.378714 -U 0.000000 -V 0.000000 -T 0.000000
n -t 4.000000 -s 4 -x 11.514203 -y 45.587535 -U 0.000000 -V 0.000000 -T 0.000000
n -t 4.000000 -s 5 -x 15.018784 -y 35.129426 -U 0.000000 -V 0.000000 -T 0.000000
n -t 4.000000 -s 9 -x 20.834127 -y 11.111282 -U 0.000000 -V 0.000000 -T 0.000000
n -t 4.000000 -s 12 -x 13.248275 -y 32.207758 -U 0.000000 -V 0.000000 -T 0.000000
n -t 4.000000 -s 14 -x 11.529795 -y 41.677479 -U 0.000000 -V 0.000000 -T 0.000000
n -t 4.000000 -s 17 -x 22.856807 -y 22.797024 -U 0.000000 -V 0.000000 -T 0.000000
n -t 4.000000 -s 19 -x 2.960102 -y 55.791604 -U 0.000000 -V 0.000000 -T 0.000000
n -t 5.000000 -s 1 -x 19.759554 -y 50.378714 -U 0.000000 -V 0.000000 -T 0.000000
n -t 5.000000 -s 3 -x 11.715360 -y 27.282374 -U 0.000000 -V 0.000000 -T 0.000000
n -t 5.000000 -s 4 -x 11.514203 -y 45.587535 -U 0.000000 -V 0.000000 -T 0.000000
n -t 5.000000 -s 5 -x 15.018784 -y 35.129426 -U 0.000000 -V 0.000000 -T 0.000000
n -t 5.000000 -s 9 -x 20.834127 -y 11.111282 -U 0.000000 -V 0.000000 -T 0.000000
n -t 5.000000 -s 14 -x 11.529795 -y 41.677479 -U 0.000000 -V 0.000000 -T 0.000000
n -t 5.000000 -s 17 -x 22.856807 -y 22.797024 -U 0.000000 -V 0.000000 -T 0.000000
n -t 5.000000 -s 19 -x 2.960102 -y 55.791604 -U 0.000000 -V 0.000000 -T 0.000000
n -t 6.000000 -s 1 -x 19.759554 -y 50.378714 -U 0.000000 -V 0.000000 -T 0.000000
n -t 6.000000 -s 3 -x 11.715360 -y 27.282374 -U 0.000000 -V 0.000000 -T 0.000000
n -t 6.000000 -s 4 -x 11.514203 -y 45.587535 -U 0.000000 -V 0.000000 -T 0.000000
n -t 6.000000 -s 5 -x 15.018784 -y 35.129426 -U 0.000000 -V 0.000000 -T 0.000000
n -t 6.000000 -s 9 -x 20.834127 -y 11.111282 -U 0.000000 -V 0.000000 -T 0.000000
n -t 6.000000 -s 14 -x 11.529795 -y 41.677479 -U 0.000000 -V 0.000000 -T 0.000000
n -t 6.000000 -s 17 -x 22.856807 -y 22.797024 -U 0.000000 -V 0.000000 -T 0.000000
n -t 6.000000 -s 19 -x 2.960102 -y 55.791604 -U 0.000000 -V 0.000000 -T 0.000000
n -t 7.000000 -s 1 -x 19.759554 -y 50.378714 -U 0.000000 -V 0.000000 -T 0.000000
n -t 7.000000 -s 3 -x 11.715360 -y 27.282374 -U 0.000000 -V 0.000000 -T 0.000000
n -t 7.000000 -s 4 -x 11.514203 -y 45.587535 -U 0.000000 -V 0.000000 -T 0.000000
n -t 7.000000 -s 5 -x 15.018784 -y 35.129426 -U 0.000000 -V 0.000000 -T 0.000000
n -t 7.000000 -s 9 -x 20.834127 -y 11.111282 -U 0.000000 -V 0.000000 -T 0.000000
n -t 7.000000 -s 14 -x 11.529795 -y 41.677479 -U 0.000000 -V 0.000000 -T 0.000000
n -t 7.000000 -s 17 -x 22.856807 -y 22.797024 -U 0.000000 -V 0.000000 -T 0.000000
n -t 7.000000 -s 19 -x 2.960102 -y 55.791604 -U 0.000000 -V 0.000000 -T 0.000000
n -t 8.000000 -s 1 -x 19.759554 -y 50.378714 -U 0.000000 -V 0.000000 -T 0.000000
n -t 8.000000 -s 3 -x 11.715360 -y 27.282374 -U 0.000000 -V 0.000000 -T 0.000000
n -t 8.000000 -s 4 -x 11.514203 -y 45.587535 -U 0.000000 -V 0.000000 -T 0.000000
n -t 8.000000 -s 5 -x 15.018784 -y 35.129426 -U 0.000000 -V 0.000000 -T 0.000000
n -t 8.000000 -s 9 -x 20.834127 -y 11.111282 -U 0.000000 -V 0.000000 -T 0.000000
n -t 8.000000 -s 12 -x 13.248275 -y 32.207758 -U 0.000000 -V 0.000000 -T 0.000000
n -t 8.000000 -s 17 -x 22.856807 -y 22.797024 -U 0.000000 -V 0.000000 -T 0.000000
n -t 8.000000 -s 19 -x 2.960102 -y 55.791604 -U 0.000000 -V 0.000000 -T 0.000000
n -t 9.000000 -s 1 -x 19.759554 -y 50.378714 -U 0.000000 -V 0.000000 -T 0.000000
n -t 9.000000 -s 3 -x 11.715360 -y 27.282374 -U 0.000000 -V 0.000000 -T 0.000000
n -t 9.000000 -s 4 -x 11.514203 -y 45.587535 -U 0.000000 -V 0.000000 -T 0.000000
n -t 9.000000 -s 5 -x 15.018784 -y 35.129426 -U 0.000000 -V 0.000000 -T 0.000000
n -t 9.000000 -s 9 -x 20.834127 -y 11.111282 -U 0.000000 -V 0.000000 -T 0.000000
n -t 9.000000 -s 12 -x 13.248275 -y 32.207758 -U 0.000000 -V 0.000000 -T 0.000000
n -t 9.000000 -s 17 -x 22.856807 -y 22.797024 -U 0.000000 -V 0.000000 -T 0.000000
n -t 9.000000 -s 19 -x 2.960102 -y 55.791604 -U 0.000000 -V 0.000000 -T 0.000000
n -t 10.000000 -s 1 -x 19.759554 -y 50.378714 -U 0.000000 -V 0.000000 -T 0.000000
n -t 10.000000 -s 3 -x 11.715360 -y 27.282374 -U 0.000000 -V 0.000000 -T 0.000000
n -t 10.000000 -s 4 -x 11.514203 -y 45.587535 -U 0.000000 -V 0.000000 -T 0.000000
n -t 10.000000 -s 5 -x 15.018784 -y 35.129426 -U 0.000000 -V 0.000000 -T 0.000000
n -t 10.000000 -s 9 -x 20.834127 -y 11.111282 -U 0.000000 -V 0.000000 -T 0.000000
n -t 10.000000 -s 12 -x 13.248275 -y 32.207758 -U 0.000000 -V 0.000000 -T 0.000000
n -t 10.000000 -s 17 -x 22.856807 -y 22.797024 -U 0.000000 -V 0.000000 -T 0.000000
n -t 10.000000 -s 19 -x 2.960102 -y 55.791604 -U 0.000000 -V 0.000000 -T 0.000000
n -t 11.000000 -s 1 -x 19.759554 -y 50.378714 -U 0.000000 -V 0.000000 -T 0.000000
n -t 11.000000 -s 3 -x 11.715360 -y 27.282374 -U 0.000000 -V 0.000000 -T 0.000000
n -t 11.000000 -s 5 -x 15.018784 -y 35.129426 -U 0.000000 -V 0.000000 -T 0.000000
n -t 11.000000 -s 9 -x 20.834127 -y 11.111282 -U 0.000000 -V 0.000000 -T 0.000000
n -t 11.000000 -s 12 -x 13.248275 -y 32.207758 -U 0.000000 -V 0.000000 -T 0.000000
n -t 11.000000 -s 14 -x 11.529795 -y 41.677479 -U 0.000000 -V 0.000000 -T 0.000000
n -t 11.000000 -s 17 -x 22.856807 -y 22.797024 -U 0.000000 -V 0.000000 -T 0.000000
n -t 11.000000 -s 19 -x 2.960102 -y 55.791604 -U 0.000000 -V 0.000000 -T 0.000000
n -t 12.000000 -s 1 -x 19.759554 -y 50.378714 -U 0.000000 -V 0.000000 -T 0.000000
n -t 12.000000 -s 3 -x 11.715360 -y 27.282374 -U 0.000000 -V 0.000000 -T 0.000000
n -t 12.000000 -s 5 -x 15.018784 -y 35.129426 -U 0.000000 -V 0.000000 -T 0.000000
n -t 12.000000 -s 9 -x 20.834127 -y 11.111282 -U 0.000000 -V 0.000000 -T 0.000000
n -t 12.000000 -s 12 -x 13.248275 -y 32.207758 -U 0.000000 -V 0.000000 -T 0.000000
n -t 12.000000 -s 14 -x 11.529795 -y 41.677479 -U 0.000000 -V 0.000000 -T 0.000000
n -t 12.000000 -s 17 -x 22.856807 -y 22.797024 -U 0.000000 -V 0.000000 -T 0.000000
n -t 12.000000 -s 19 -x 2.960102 -y 55.791604 -U 0.000000 -V 0.000000 -T 0.000000
n -t 13.000000 -s 4 -x 11.514203 -y 45.587535 -U -0.466382 -V 0.884583 -T 1.446346
n -t 13.000000 -s 1 -x 19.759554 -y 50.378714 -U 0.000000 -V 0.000000 -T 0.000000
n -t 13.000000 -s 3 -x 11.715360 -y 27.282374 -U 0.000000 -V 0.000000 -T 0.000000
n -t 13.000000 -s 5 -x 15.018784 -y 35.129426 -U 0.000000 -V 0.000000 -T 0.000000
n -t 13.000000 -s 9 -x 20.834127 -y 11.111282 -U 0.000000 -V 0.000000 -T 0.000000
n -t 13.000000 -s 12 -x 13.248275 -y 32.207758 -U 0.000000 -V 0.000000 -T 0.000000
n -t 13.000000 -s 14 -x 11.529795 -y 41.677479 -U 0.000000 -V 0.000000 -T 0.000000
n -t 13.000000 -s 17 -x 22.856807 -y 22.797024 -U 0.000000 -V 0.000000 -T 0.000000
n -t 13.000000 -s 19 -x 2.960102 -y 55.791604 -U 0.000000 -V 0.000000 -T 0.000000
n -t 14.000000 -s 19 -x 2.960102 -y 55.791604 -U 0.940393 -V -0.340091 -T 0.498252
n -t 14.000000 -s 1 -x 19.759554 -y 50.378714 -U 0.000000 -V 0.000000 -T 0.000000
n -t 14.000000 -s 3 -x 11.715360 -y 27.282374 -U 0.000000 -V 0.000000 -T 0.000000
n -t 14.000000 -s 4 -x 11.047821 -y 46.472119 -U 0.000000 -V 0.000000 -T 0.000000
n -t 14.000000 -s 5 -x 15.018784 -y 35.129426 -U 0.000000 -V 0.000000 -T 0.000000
n -t 14.000000 -s 9 -x 20.834127 -y 11.111282 -U 0.000000 -V 0.000000 -T 0.000000
n -t 14.000000 -s 12 -x 13.248275 -y 32.207758 -U 0.000000 -V 0.000000 -T 0.000000
n -t 14.000000 -s 14 -x 11.529795 -y 41.677479 -U 0.000000 -V 0.000000 -T 0.000000
n -t 14.000000 -s 17 -x 22.856807 -y 22.797024 -U 0.000000 -V 0.000000 -T 0.000000
n -t 15.000000 -s 1 -x 19.759554 -y 50.378714 -U 0.000000 -V 0.000000 -T 0.000000
n -t 15.000000 -s 3 -x 11.715360 -y 27.282374 -U 0.000000 -V 0.000000 -T 0.000000
n -t 15.000000 -s 4 -x 11.047821 -y 46.472119 -U 0.000000 -V 0.000000 -T 0.000000
n -t 15.000000 -s 5 -x 15.018784 -y 35.129426 -U 0.000000 -V 0.000000 -T 0.000000
n -t 15.000000 -s 9 -x 20.834127 -y 11.111282 -U 0.000000 -V 0.000000 -T 0.000000
n -t 15.000000 -s 12 -x 13.248275 -y 32.207758 -U 0.000000 -V 0.000000 -T 0.000000
n -t 15.000000 -s 14 -x 11.529795 -y 41.677479 -U 0.000000 -V 0.000000 -T 0.000000
n -t 15.000000 -s 17 -x 22.856807 -y 22.797024 -U 0.000000 -V 0.000000 -T 0.000000
n -t 16.000000 -s 19 -x 3.428655 -y 55.622152 -U 0.742333 -V 0.670031 -T 0.317975
n -t 16.000000 -s 1 -x 19.759554 -y 50.378714 -U 0.000000 -V 0.000000 -T 0.000000
n -t 16.000000 -s 3 -x 11.715360 -y 27.282374 -U 0.000000 -V 0.000000 -T 0.000000
n -t 16.000000 -s 4 -x 11.047821 -y 46.472119 -U 0.000000 -V 0.000000 -T 0.000000
n -t 16.000000 -s 5 -x 15.018784 -y 35.129426 -U 0.000000 -V 0.000000 -T 0.000000
n -t 16.000000 -s 9 -x 20.834127 -y 11.111282 -U 0.000000 -V 0.000000 -T 0.000000
n -t 16.000000 -s 12 -x 13.248275 -y 32.207758 -U 0.000000 -V 0.000000 -T 0.000000
n -t 16.000000 -s 14 -x 11.529795 -y 41.677479 -U 0.000000 -V 0.000000 -T 0.000000
n -t 16.000000 -s 17 -x 22.856807 -y 22.797024 -U 0.000000 -V 0.000000 -T 0.000000
n -t 17.000000 -s 19 -x 3.664699 -y 55.835205 -U 0.486894 -V 0.873461 -T 1.848599
n -t 17.000000 -s 1 -x 19.759554 -y 50.378714 -U 0.000000 -V 0.000000 -T 0.000000
n -t 17.000000 -s 3 -x 11.715360 -y 27.282374 -U 0.000000 -V 0.000000 -T 0.000000
n -t 17.000000 -s 4 -x 11.047821 -y 46.472119 -U 0.000000 -V 0.000000 -T 0.000000
n -t 17.000000 -s 5 -x 15.018784 -y 35.129426 -U 0.000000 -V 0.000000 -T 0.000000
n -t 17.000000 -s 9 -x 20.834127 -y 11.111282 -U 0.000000 -V 0.000000 -T 0.000000
n -t 17.000000 -s 12 -x 13.248275 -y 32.207758 -U 0.000000 -V 0.000000 -T 0.000000
n -t 17.000000 -s 14 -x 11.529795 -y 41.677479 -U 0.000000 -V 0.000000 -T 0.000000
n -t 17.000000 -s 17 -x 22.856807 -y 22.797024 -U 0.000000 -V 0.000000 -T 0.000000
n -t 18.000000 -s 19 -x 4.151592 -y 56.708667 -U 0.304062 -V 0.952652 -T 3.125058
n -t 18.000000 -s 1 -x 19.759554 -y 50.378714 -U 0.000000 -V 0.000000 -T 0.000000
n -t 18.000000 -s 3 -x 11.715360 -y 27.282374 -U 0.000000 -V 0.000000 -T 0.000000
n -t 18.000000 -s 4 -x 11.047821 -y 46.472119 -U 0.000000 -V 0.000000 -T 0.000000
n -t 18.000000 -s 5 -x 15.018784 -y 35.129426 -U 0.000000 -V 0.000000 -T 0.000000
n -t 18.000000 -s 9 -x 20.834127 -y 11.111282 -U 0.000000 -V 0.000000 -T 0.000000
n -t 18.000000 -s 12 -x 13.248275 -y 32.207758 -U 0.000000 -V 0.000000 -T 0.000000
n -t 18.000000 -s 14 -x 11.529795 -y 41.677479 -U 0.000000 -V 0.000000 -T 0.000000
n -t 18.000000 -s 17 -x 22.856807 -y 22.797024 -U 0.000000 -V 0.000000 -T 0.000000
n -t 19.000000 -s 19 -x 4.455654 -y 57.661319 -U 0.186622 -V 0.982432 -T 4.587979
n -t 19.000000 -s 1 -x 19.759554 -y 50.378714 -U 0.000000 -V 0.000000 -T 0.000000
n -t 19.000000 -s 3 -x 11.715360 -y 27.282374 -U 0.000000 -V 0.000000 -T 0.000000
n -t 19.000000 -s 4 -x 11.047821 -y 46.472119 -U 0.000000 -V 0.000000 -T 0.000000
n -t 19.000000 -s 5 -x 15.018784 -y 35.129426 -U 0.000000 -V 0.000000 -T 0.000000
n -t 19.000000 -s 9 -x 20.834127 -y 11.111282 -U 0.000000 -V 0.000000 -T 0.000000
n -t 19.000000 -s 12 -x 13.248275 -y 32.207758 -U 0.000000 -V 0.000000 -T 0.000000
n -t 19.000000 -s 14 -x 11.529795 -y 41.677479 -U 0.000000 -V 0.000000 -T 0.000000
n -t 19.000000 -s 17 -x 22.856807 -y 22.797024 -U 0.000000 -V 0.000000 -T 0.000000
n -t 20.000000 -s 19 -x 4.642276 -y 58.643751 -U 0.110050 -V 0.993926 -T 6.136577
n -t 21.000000 -s 1 -x 19.759554 -y 50.378714 -U -0.544748 -V 0.838600 -T 21.193429
n -t 21.000000 -s 4 -x 11.047821 -y 46.472119 -U -0.209999 -V 0.977702 -T 21.462468
n -t 21.000000 -s 5 -x 15.018784 -y 35.129426 -U -0.248027 -V 0.968753 -T 33.415449
n -t 21.000000 -s 12 -x 13.248275 -y 32.207758 -U -0.189766 -V 0.981829 -T 35.879565
n -t 21.000000 -s 14 -x 11.529795 -y 41.677479 -U -0.193213 -V 0.981157 -T 26.255999
n -t 21.000000 -s 18 -x 30.394750 -y 72.289330 -U -0.999998 -V 0.002216 -T 19.904079
n -t 21.000000 -s 19 -x 4.752326 -y 59.637677 -U 0.058013 -V 0.998316 -T 7.728276
n -t 21.000000 -s 19 -x 4.752326 -y 59.637677 -U 0.058013 -V 0.998316 -T 7.728276
n -t 22.000000 -s 1 -x 19.214806 -y 51.217314 -U -0.510386 -V 0.859946 -T 22.628527
n -t 22.000000 -s 4 -x 10.837823 -y 47.449820 -U -0.203597 -V 0.979055 -T 23.115411
n -t 22.000000 -s 5 -x 14.770758 -y 36.098179 -U -0.241070 -V 0.970508 -T 35.059613
n -t 22.000000 -s 14 -x 11.336582 -y 42.658636 -U -0.189083 -V 0.981961 -T 27.911395
n -t 22.000000 -s 18 -x 29.394752 -y 72.291546 -U -0.993942 -V 0.109902 -T 19.429127
n -t 22.000000 -s 19 -x 4.810339 -y 60.635993 -U 0.021143 -V 0.999776 -T 9.343561
n -t 22.000000 -s 19 -x 4.810339 -y 60.635993 -U 0.021143 -V 0.999776 -T 9.343561
n -t 23.000000 -s 1 -x 18.704420 -y 52.077260 -U -0.479964 -V 0.877288 -T 24.102083
n -t 23.000000 -s 4 -x 10.634225 -y 48.428875 -U -0.198115 -V 0.980179 -T 24.769366
n -t 23.000000 -s 5 -x 14.529688 -y 37.068687 -U -0.234818 -V 0.972039 -T 36.705603
n -t 23.000000 -s 14 -x 11.147499 -y 43.640597 -U -0.185465 -V 0.982651 -T 29.567294
n -t 23.000000 -s 18 -x 28.400810 -y 72.401448 -U -0.976639 -V 0.214885 -T 19.230366
n -t 23.000000 -s 19 -x 4.831482 -y 61.635769 -U -0.005948 -V 0.999982 -T 10.972692
n -t 23.000000 -s 19 -x 4.831482 -y 61.635769 -U -0.005948 -V 0.999982 -T 10.972692
n -t 24.000000 -s 1 -x 18.224457 -y 52.954548 -U -0.466999 -V 0.884258 -T 24.255175
n -t 24.000000 -s 4 -x 10.436111 -y 49.409054 -U -0.195824 -V 0.980639 -T 24.995343
n -t 24.000000 -s 5 -x 14.294870 -y 38.040726 -U -0.232125 -V 0.972686 -T 36.928159
n -t 24.000000 -s 14 -x 10.962035 -y 44.623248 -U -0.183932 -V 0.982939 -T 29.794033
n -t 24.000000 -s 18 -x 27.424171 -y 72.616332 -U -0.965060 -V 0.262028 -T 18.689570
n -t 24.000000 -s 19 -x 4.825535 -y 62.635751 -U -0.016259 -V 0.999868 -T 11.190049
n -t 24.000000 -s 19 -x 4.825535 -y 62.635751 -U -0.016259 -V 0.999868 -T 11.190049
n -t 25.000000 -s 1 -x 17.757457 -y 53.838806 -U -0.466999 -V 0.884258 -T 23.255175
n -t 25.000000 -s 4 -x 10.240287 -y 50.389693 -U -0.195824 -V 0.980639 -T 23.995343
n -t 25.000000 -s 5 -x 14.062746 -y 39.013412 -U -0.232125 -V 0.972686 -T 35.928159
n -t 25.000000 -s 14 -x 10.778103 -y 45.606187 -U -0.183932 -V 0.982939 -T 28.794033
n -t 25.000000 -s 18 -x 26.459110 -y 72.878360 -U -0.965060 -V 0.262028 -T 17.689570
n -t 25.000000 -s 19 -x 4.809276 -y 63.635619 -U -0.016259 -V 0.999868 -T 10.190049
n -t 25.000000 -s 19 -x 4.809276 -y 63.635619 -U -0.016259 -V 0.999868 -T 10.190049
n -t 26.000000 -s 1 -x 17.290458 -y 54.723063 -U -0.466999 -V 0.884258 -T 22.255175
n -t 26.000000 -s 4 -x 10.044463 -y 51.370332 -U -0.195824 -V 0.980639 -T 22.995343
n -t 26.000000 -s 5 -x 13.830621 -y 39.986098 -U -0.232125 -V 0.972686 -T 34.928159
n -t 26.000000 -s 12 -x 12.299446 -y 37.116905 -U -0.182401 -V 0.983224 -T 37.418353
n -t 26.000000 -s 14 -x 10.594171 -y 46.589126 -U -0.183932 -V 0.982939 -T 27.794033
n -t 26.000000 -s 18 -x 25.494050 -y 73.140388 -U -0.965060 -V 0.262028 -T 16.689570
n -t 26.000000 -s 19 -x 4.793017 -y 64.635487 -U -0.016259 -V 0.999868 -T 9.190049
n -t 26.000000 -s 19 -x 4.793017 -y 64.635487 -U -0.016259 -V 0.999868 -T 9.190049
n -t 27.000000 -s 1 -x 16.823458 -y 55.607321 -U -0.466999 -V 0.884258 -T 21.255175
n -t 27.000000 -s 4 -x 9.848639 -y 52.350971 -U -0.195824 -V 0.980639 -T 21.995343
n -t 27.000000 -s 5 -x 13.598496 -y 40.958784 -U -0.232125 -V 0.972686 -T 33.928159
n -t 27.000000 -s 12 -x 12.117045 -y 38.100129 -U -0.182401 -V 0.983224 -T 36.418353
n -t 27.000000 -s 14 -x 10.410239 -y 47.572065 -U -0.183932 -V 0.982939 -T 26.794033
n -t 27.000000 -s 18 -x 24.528990 -y 73.402416 -U -0.965060 -V 0.262028 -T 15.689570
n -t 27.000000 -s 19 -x 4.776759 -y 65.635355 -U -0.016259 -V 0.999868 -T 8.190049
n -t 27.000000 -s 19 -x 4.776759 -y 65.635355 -U -0.016259 -V 0.999868 -T 8.190049
n -t 28.000000 -s 1 -x 16.356459 -y 56.491578 -U -0.466999 -V 0.884258 -T 20.255175
n -t 28.000000 -s 4 -x 9.652815 -y 53.331610 -U -0.195824 -V 0.980639 -T 20.995343
n -t 28.000000 -s 5 -x 13.366371 -y 41.931470 -U -0.232125 -V 0.972686 -T 32.928159
n -t 28.000000 -s 12 -x 11.934644 -y 39.083354 -U -0.182401 -V 0.983224 -T 35.418353
n -t 28.000000 -s 14 -x 10.226308 -y 48.555004 -U -0.183932 -V 0.982939 -T 25.794033
n -t 28.000000 -s 18 -x 23.563929 -y 73.664444 -U -0.965060 -V 0.262028 -T 14.689570
n -t 28.000000 -s 19 -x 4.760500 -y 66.635223 -U -0.016259 -V 0.999868 -T 7.190049
n -t 28.000000 -s 19 -x 4.760500 -y 66.635223 -U -0.016259 -V 0.999868 -T 7.190049
n -t 29.000000 -s 1 -x 15.889460 -y 57.375836 -U -0.466999 -V 0.884258 -T 19.255175
n -t 29.000000 -s 4 -x 9.456991 -y 54.312249 -U -0.195824 -V 0.980639 -T 19.995343
n -t 29.000000 -s 5 -x 13.134247 -y 42.904156 -U -0.232125 -V 0.972686 -T 31.928159
n -t 29.000000 -s 12 -x 11.752243 -y 40.066578 -U -0.182401 -V 0.983224 -T 34.418353
n -t 29.000000 -s 14 -x 10.042376 -y 49.537943 -U -0.183932 -V 0.982939 -T 24.794033
n -t 29.000000 -s 18 -x 22.598869 -y 73.926472 -U -0.965060 -V 0.262028 -T 13.689570
n -t 29.000000 -s 19 -x 4.744242 -y 67.635090 -U -0.016259 -V 0.999868 -T 6.190049
n -t 29.000000 -s 19 -x 4.744242 -y 67.635090 -U -0.016259 -V 0.999868 -T 6.190049
n -t 30.000000 -s 1 -x 15.422460 -y 58.260094 -U -0.466999 -V 0.884258 -T 18.255175
n -t 30.000000 -s 4 -x 9.261168 -y 55.292888 -U -0.195824 -V 0.980639 -T 18.995343
n -t 30.000000 -s 5 -x 12.902122 -y 43.876842 -U -0.232125 -V 0.972686 -T 30.928159
n -t 30.000000 -s 12 -x 11.569843 -y 41.049802 -U -0.182401 -V 0.983224 -T 33.418353
n -t 30.000000 -s 14 -x 9.858444 -y 50.520882 -U -0.183932 -V 0.982939 -T 23.794033
n -t 30.000000 -s 18 -x 21.633809 -y 74.188499 -U -0.965060 -V 0.262028 -T 12.689570
n -t 30.000000 -s 19 -x 4.727983 -y 68.634958 -U -0.016259 -V 0.999868 -T 5.190049
n -t 30.000000 -s 19 -x 4.727983 -y 68.634958 -U -0.016259 -V 0.999868 -T 5.190049
n -t 31.000000 -s 1 -x 14.955461 -y 59.144351 -U -0.466999 -V 0.884258 -T 17.255175
n -t 31.000000 -s 4 -x 9.065344 -y 56.273527 -U -0.195824 -V 0.980639 -T 17.995343
n -t 31.000000 -s 5 -x 12.669997 -y 44.849528 -U -0.232125 -V 0.972686 -T 29.928159
n -t 31.000000 -s 12 -x 11.387442 -y 42.033027 -U -0.182401 -V 0.983224 -T 32.418353
n -t 31.000000 -s 14 -x 9.674512 -y 51.503821 -U -0.183932 -V 0.982939 -T 22.794033
n -t 31.000000 -s 18 -x 20.668748 -y 74.450527 -U -0.965060 -V 0.262028 -T 11.689570
n -t 31.000000 -s 19 -x 4.711724 -y 69.634826 -U -0.016259 -V 0.999868 -T 4.190049
n -t 31.000000 -s 19 -x 4.711724 -y 69.634826 -U -0.016259 -V 0.999868 -T 4.190049
n -t 31.000000 -s 1 -x 14.955461 -y 59.144351 -U 0.000000 -V 0.000000 -T 0.000000
n -t 31.000000 -s 4 -x 9.065344 -y 56.273527 -U 0.000000 -V 0.000000 -T 0.000000
n -t 31.000000 -s 5 -x 12.669997 -y 44.849528 -U 0.000000 -V 0.000000 -T 0.000000
n -t 31.000000 -s 12 -x 11.387442 -y 42.033027 -U 0.000000 -V 0.000000 -T 0.000000
n -t 31.000000 -s 14 -x 9.674512 -y 51.503821 -U 0.000000 -V 0.000000 -T 0.000000
n -t 31.000000 -s 18 -x 20.668748 -y 74.450527 -U 0.000000 -V 0.000000 -T 0.000000
n -t 32.000000 -s 20 -x 4.562307 -y 78.823660 -U 1.052370 -V -0.531762 -T 90.432856
n -t 32.000000 -s 19 -x 4.695466 -y 70.634694 -U -0.016259 -V 0.999868 -T 3.190049
n -t 32.000000 -s 1 -x 14.955461 -y 59.144351 -U 0.000000 -V 0.000000 -T 0.000000
n -t 32.000000 -s 4 -x 9.065344 -y 56.273527 -U 0.000000 -V 0.000000 -T 0.000000
n -t 32.000000 -s 5 -x 12.669997 -y 44.849528 -U 0.000000 -V 0.000000 -T 0.000000
n -t 32.000000 -s 12 -x 11.387442 -y 42.033027 -U 0.000000 -V 0.000000 -T 0.000000
n -t 32.000000 -s 14 -x 9.674512 -y 51.503821 -U 0.000000 -V 0.000000 -T 0.000000
n -t 32.000000 -s 18 -x 20.668748 -y 74.450527 -U 0.000000 -V 0.000000 -T 0.000000
n -t 33.000000 -s 19 -x 4.679207 -y 71.634562 -U 0.139150 -V 0.990271 -T 1.722739
n -t 33.000000 -s 1 -x 14.955461 -y 59.144351 -U 0.000000 -V 0.000000 -T 0.000000
n -t 33.000000 -s 4 -x 9.065344 -y 56.273527 -U 0.000000 -V 0.000000 -T 0.000000
n -t 33.000000 -s 5 -x 12.669997 -y 44.849528 -U 0.000000 -V 0.000000 -T 0.000000
n -t 33.000000 -s 12 -x 11.387442 -y 42.033027 -U 0.000000 -V 0.000000 -T 0.000000
n -t 33.000000 -s 14 -x 9.674512 -y 51.503821 -U 0.000000 -V 0.000000 -T 0.000000
n -t 33.000000 -s 18 -x 20.668748 -y 74.450527 -U 0.000000 -V 0.000000 -T 0.000000
n -t 34.000000 -s 19 -x 4.818357 -y 72.624833 -U 0.338716 -V 0.940889 -T 0.457928
n -t 34.000000 -s 1 -x 14.955461 -y 59.144351 -U 0.000000 -V 0.000000 -T 0.000000
n -t 34.000000 -s 4 -x 9.065344 -y 56.273527 -U 0.000000 -V 0.000000 -T 0.000000
n -t 34.000000 -s 5 -x 12.669997 -y 44.849528 -U 0.000000 -V 0.000000 -T 0.000000
n -t 34.000000 -s 12 -x 11.387442 -y 42.033027 -U 0.000000 -V 0.000000 -T 0.000000
n -t 34.000000 -s 14 -x 9.674512 -y 51.503821 -U 0.000000 -V 0.000000 -T 0.000000
n -t 34.000000 -s 18 -x 20.668748 -y 74.450527 -U 0.000000 -V 0.000000 -T 0.000000
n -t 35.000000 -s 1 -x 14.955461 -y 59.144351 -U 0.000000 -V 0.000000 -T 0.000000
n -t 35.000000 -s 4 -x 9.065344 -y 56.273527 -U 0.000000 -V 0.000000 -T 0.000000
n -t 35.000000 -s 5 -x 12.669997 -y 44.849528 -U 0.000000 -V 0.000000 -T 0.000000
n -t 35.000000 -s 12 -x 11.387442 -y 42.033027 -U 0.000000 -V 0.000000 -T 0.000000
n -t 35.000000 -s 14 -x 9.674512 -y 51.503821 -U 0.000000 -V 0.000000 -T 0.000000
n -t 35.000000 -s 18 -x 20.668748 -y 74.450527 -U 0.000000 -V 0.000000 -T 0.000000
n -t 36.000000 -s 19 -x 4.973465 -y 73.055692 -U 0.721907 -V 0.691991 -T 0.261513
n -t 36.000000 -s 1 -x 14.955461 -y 59.144351 -U 0.000000 -V 0.000000 -T 0.000000
n -t 36.000000 -s 4 -x 9.065344 -y 56.273527 -U 0.000000 -V 0.000000 -T 0.000000
n -t 36.000000 -s 5 -x 12.669997 -y 44.849528 -U 0.000000 -V 0.000000 -T 0.000000
n -t 36.000000 -s 12 -x 11.387442 -y 42.033027 -U 0.000000 -V 0.000000 -T 0.000000
n -t 36.000000 -s 14 -x 9.674512 -y 51.503821 -U 0.000000 -V 0.000000 -T 0.000000
n -t 36.000000 -s 18 -x 20.668748 -y 74.450527 -U 0.000000 -V 0.000000 -T 0.000000
n -t 37.000000 -s 19 -x 5.162253 -y 73.236657 -U 0.846812 -V 0.531892 -T 0.505237
n -t 37.000000 -s 1 -x 14.955461 -y 59.144351 -U 0.000000 -V 0.000000 -T 0.000000
n -t 37.000000 -s 4 -x 9.065344 -y 56.273527 -U 0.000000 -V 0.000000 -T 0.000000
n -t 37.000000 -s 5 -x 12.669997 -y 44.849528 -U 0.000000 -V 0.000000 -T 0.000000
n -t 37.000000 -s 12 -x 11.387442 -y 42.033027 -U 0.000000 -V 0.000000 -T 0.000000
n -t 37.000000 -s 14 -x 9.674512 -y 51.503821 -U 0.000000 -V 0.000000 -T 0.000000
n -t 37.000000 -s 18 -x 20.668748 -y 74.450527 -U 0.000000 -V 0.000000 -T 0.000000
n -t 38.000000 -s 19 -x 5.590094 -y 73.505388 -U 0.927680 -V 0.373375 -T 0.698548
n -t 38.000000 -s 1 -x 14.955461 -y 59.144351 -U 0.000000 -V 0.000000 -T 0.000000
n -t 38.000000 -s 4 -x 9.065344 -y 56.273527 -U 0.000000 -V 0.000000 -T 0.000000
n -t 38.000000 -s 5 -x 12.669997 -y 44.849528 -U 0.000000 -V 0.000000 -T 0.000000
n -t 38.000000 -s 12 -x 11.387442 -y 42.033027 -U 0.000000 -V 0.000000 -T 0.000000
n -t 38.000000 -s 14 -x 9.674512 -y 51.503821 -U 0.000000 -V 0.000000 -T 0.000000
n -t 38.000000 -s 18 -x 20.668748 -y 74.450527 -U 0.000000 -V 0.000000 -T 0.000000
n -t 39.000000 -s 19 -x 6.238123 -y 73.766209 -U 0.973565 -V 0.228408 -T 0.845290
n -t 39.000000 -s 1 -x 14.955461 -y 59.144351 -U 0.000000 -V 0.000000 -T 0.000000
n -t 39.000000 -s 4 -x 9.065344 -y 56.273527 -U 0.000000 -V 0.000000 -T 0.000000
n -t 39.000000 -s 5 -x 12.669997 -y 44.849528 -U 0.000000 -V 0.000000 -T 0.000000
n -t 39.000000 -s 12 -x 11.387442 -y 42.033027 -U 0.000000 -V 0.000000 -T 0.000000
n -t 39.000000 -s 14 -x 9.674512 -y 51.503821 -U 0.000000 -V 0.000000 -T 0.000000
n -t 39.000000 -s 18 -x 20.668748 -y 74.450527 -U 0.000000 -V 0.000000 -T 0.000000
n -t 40.000000 -s 19 -x 7.061068 -y 73.959280 -U 0.994729 -V 0.102541 -T 0.951569
n -t 40.000000 -s 1 -x 14.955461 -y 59.144351 -U 0.000000 -V 0.000000 -T 0.000000
n -t 40.000000 -s 4 -x 9.065344 -y 56.273527 -U 0.000000 -V 0.000000 -T 0.000000
n -t 40.000000 -s 5 -x 12.669997 -y 44.849528 -U 0.000000 -V 0.000000 -T 0.000000
n -t 40.000000 -s 12 -x 11.387442 -y 42.033027 -U 0.000000 -V 0.000000 -T 0.000000
n -t 40.000000 -s 14 -x 9.674512 -y 51.503821 -U 0.000000 -V 0.000000 -T 0.000000
n -t 40.000000 -s 18 -x 20.668748 -y 74.450527 -U 0.000000 -V 0.000000 -T 0.000000
n -t 41.000000 -s 19 -x 8.007620 -y 74.056855 -U 0.999995 -V -0.003162 -T 1.026044
n -t 41.000000 -s 1 -x 14.955461 -y 59.144351 -U 0.000000 -V 0.000000 -T 0.000000
n -t 41.000000 -s 4 -x 9.065344 -y 56.273527 -U 0.000000 -V 0.000000 -T 0.000000
n -t 41.000000 -s 5 -x 12.669997 -y 44.849528 -U 0.000000 -V 0.000000 -T 0.000000