n -t * -s 0  -x 61.63814 -y 43.334429999999998 -Z 0 -z 1  -v circle -c black
n -t * -s 1  -x 93.695049999999995 -y 68.195639999999997 -Z 0 -z 1  -v circle -c black
n -t * -s 2  -x 88.021799999999999 -y 12.67629 -Z 0 -z 1  -v circle -c black
n -t * -s 3  -x 88.699650000000005 -y 7.4766630000000003 -Z 0 -z 1  -v circle -c black
n -t * -s 4  -x 67.400059999999996 -y 73.667630000000003 -Z 0 -z 1  -v circle -c black
n -t * -s 5  -x 90.109790000000004 -y 7.4963189999999997 -Z 0 -z 1  -v circle -c black
n -t * -s 6  -x 10.30297 -y 4.267855 -Z 0 -z 1  -v circle -c black
n -t * -s 7  -x 87.023079999999993 -y 53.047420000000002 -Z 0 -z 1  -v circle -c black
n -t * -s 8  -x 27.590109999999999 -y 26.418199999999999 -Z 0 -z 1  -v circle -c black
n -t * -s 9  -x 72.046819999999997 -y 23.591139999999999 -Z 0 -z 1  -v circle -c black
n -t * -s 10  -x 77.627920000000003 -y 1.294627 -Z 0 -z 2  -v circle -c black
V -t * -v 1.0a5 -a 0
W -t * -x 100 -y 100
A -t * -n 1 -p 0 -o 0x7fffffff -c 30 -a 1
A -t * -h 1 -m 1073741823 -s 0
n -t 0 -s 10 -S COLOR -c red -o black -i red -I black
n -t 0.000000 -s 10 -x 77.627920 -y 1.294627 -U -1.804762 -V 4.018685 -T 14.772700
n -t 20.000000 -s 10 -x 50.966710 -y 60.661450 -U -0.486967 -V 1.100344 -T 23.690130
n -t 52.000000 -s 10 -x 39.430390 -y 86.728750 -U 2.917679 -V -1.726208 -T 7.294011
n -t 62.000000 -s 10 -x 60.711970 -y 74.137770 -U -1.768065 -V -0.456655 -T 13.404611
n -t 80.000000 -s 10 -x 37.011750 -y 68.016490 -U 0.461837 -V 4.115493 -T 6.077085
n -t 89.000000 -s 10 -x 39.818370 -y 93.026690 -U -3.606663 -V -3.892298 -T 7.574352
n -t 99.000000 -s 10 -x 12.500230 -y 63.545050 -U 4.034924 -V -1.252855 -T 10.363562
