n -t * -s 0  -x 77.279030000000006 -y 62.938690000000001 -Z 0 -z 1  -v circle -c black
n -t * -s 1  -x 64.265829999999994 -y 92.082700000000003 -Z 0 -z 1  -v circle -c black
n -t * -s 2  -x 17.711300000000001 -y 26.056850000000001 -Z 0 -z 1  -v circle -c black
n -t * -s 3  -x 76.6935 -y 56.640239999999999 -Z 0 -z 1  -v circle -c black
n -t * -s 4  -x 92.346450000000004 -y 84.076430000000002 -Z 0 -z 1  -v circle -c black
n -t * -s 5  -x 28.405100000000001 -y 72.652739999999994 -Z 0 -z 1  -v circle -c black
n -t * -s 6  -x 71.789010000000005 -y 0.18777730000000001 -Z 0 -z 1  -v circle -c black
n -t * -s 7  -x 54.178669999999997 -y 84.908349999999999 -Z 0 -z 1  -v circle -c black
n -t * -s 8  -x 75.463980000000006 -y 30.537369999999999 -Z 0 -z 1  -v circle -c black
n -t * -s 9  -x 62.605249999999998 -y 73.232519999999994 -Z 0 -z 1  -v circle -c black
n -t * -s 10  -x 47.430390000000003 -y 87.961669999999998 -Z 0 -z 2  -v circle -c black
n -t * -s 11  -x 85.36045 -y 39.988439999999997 -Z 0 -z 2  -v circle -c black
n -t * -s 12  -x 83.122060000000005 -y 31.859290000000001 -Z 0 -z 2  -v circle -c black
V -t * -v 1.0a5 -a 0
W -t * -x 100 -y 100
A -t * -n 1 -p 0 -o 0x7fffffff -c 30 -a 1
A -t * -h 1 -m 1073741823 -s 0
n -t 0 -s 10 -S COLOR -c red -o black -i red -I black
n -t 0 -s 11 -S COLOR -c red -o black -i red -I black
n -t 0 -s 12 -S COLOR -c red -o black -i red -I black
n -t 0.000000 -s 10 -x 47.430390 -y 87.961670 -U 0.643446 -V -0.308405 -T 51.642692
n -t 0.000000 -s 11 -x 85.360450 -y 39.988440 -U -1.898114 -V 0.998066 -T 27.218909
n -t 0.000000 -s 12 -x 83.122060 -y 31.859290 -U -0.726563 -V 2.123039 -T 17.114731
n -t 0.000000 -s 7 -x 54.178670 -y 84.908350 -U -0.911081 -V 0.412227 -T 7.406892
n -t 0.000000 -s 8 -x 75.463980 -y 30.537370 -U 0.985426 -V 0.170102 -T 7.771336
n -t 0.000000 -s 1 -x 64.265830 -y 92.082700 -U -0.971323 -V -0.237763 -T 17.332482
n -t 0.000000 -s 3 -x 76.693500 -y 56.640240 -U 0.461689 -V -0.887042 -T 18.772279
n -t 0.000000 -s 9 -x 62.605250 -y 73.232520 -U -0.717566 -V 0.696490 -T 21.147677
n -t 0.000000 -s 0 -x 77.279030 -y 62.938690 -U 0.332138 -V -0.943231 -T 24.331529
n -t 0.000000 -s 5 -x 28.405100 -y 72.652740 -U 0.779094 -V 0.626907 -T 24.419767
n -t 0.000000 -s 6 -x 71.789010 -y 0.187777 -U 0.336911 -V 0.941537 -T 33.638114
n -t 0.000000 -s 4 -x 92.346450 -y 84.076430 -U -0.156503 -V -0.987677 -T 44.638045
n -t 0.000000 -s 2 -x 17.711300 -y 26.056850 -U 0.996089 -V 0.088361 -T 65.667616
n -t 0.000000 -s 1 -x 64.265830 -y 92.082700 -U 0.000000 -V 0.000000 -T 0.000000
n -t 0.000000 -s 9 -x 62.605250 -y 73.232520 -U 0.000000 -V 0.000000 -T 0.000000
n -t 0.000000 -s 5 -x 28.405100 -y 72.652740 -U 0.000000 -V 0.000000 -T 0.000000
n -t 0.000000 -s 6 -x 71.789010 -y 0.187777 -U 0.000000 -V 0.000000 -T 0.000000
n -t 0.000000 -s 2 -x 17.711300 -y 26.056850 -U 0.000000 -V 0.000000 -T 0.000000
n -t 1.000000 -s 7 -x 53.267589 -y 85.320577 -U 0.000000 -V 0.000000 -T 0.000000
n -t 1.000000 -s 1 -x 64.265830 -y 92.082700 -U 0.000000 -V 0.000000 -T 0.000000
n -t 1.000000 -s 9 -x 62.605250 -y 73.232520 -U 0.000000 -V 0.000000 -T 0.000000
n -t 1.000000 -s 5 -x 28.405100 -y 72.652740 -U 0.000000 -V 0.000000 -T 0.000000
n -t 1.000000 -s 3 -x 77.155189 -y 55.753198 -U 0.000000 -V 0.000000 -T 0.000000
n -t 1.000000 -s 0 -x 77.611168 -y 61.995459 -U 0.000000 -V 0.000000 -T 0.000000
n -t 1.000000 -s 4 -x 92.189947 -y 83.088753 -U 0.000000 -V 0.000000 -T 0.000000
n -t 1.000000 -s 8 -x 76.449406 -y 30.707472 -U 0.000000 -V 0.000000 -T 0.000000
n -t 1.000000 -s 6 -x 71.789010 -y 0.187777 -U 0.000000 -V 0.000000 -T 0.000000
n -t 1.000000 -s 2 -x 17.711300 -y 26.056850 -U 0.000000 -V 0.000000 -T 0.000000
n -t 1.000000 -s 7 -x 53.267589 -y 85.320577 -U -0.912080 -V 0.410011 -T 5.771019
n -t 1.000000 -s 8 -x 76.449406 -y 30.707472 -U 0.892536 -V 0.450977 -T 6.750428
n -t 1.000000 -s 3 -x 77.155189 -y 55.753198 -U 0.392791 -V -0.919628 -T 16.057251
n -t 1.000000 -s 1 -x 64.265830 -y 92.082700 -U -0.965351 -V -0.260955 -T 16.845560
n -t 1.000000 -s 9 -x 62.605250 -y 73.232520 -U -0.710676 -V 0.703519 -T 20.545629
n -t 1.000000 -s 0 -x 77.611168 -y 61.995459 -U 0.268297 -V -0.963336 -T 21.808537
n -t 1.000000 -s 5 -x 28.405100 -y 72.652740 -U 0.793445 -V 0.608641 -T 24.700948
n -t 1.000000 -s 6 -x 71.789010 -y 0.187777 -U 0.303357 -V 0.952877 -T 35.223833
n -t 1.000000 -s 4 -x 92.189947 -y 83.088753 -U -0.202980 -V -0.979183 -T 42.997330
n -t 1.000000 -s 2 -x 17.711300 -y 26.056850 -U 0.993015 -V 0.117986 -T 65.218643
n -t 1.000000 -s 1 -x 64.265830 -y 92.082700 -U 0.000000 -V 0.000000 -T 0.000000
n -t 1.000000 -s 9 -x 62.605250 -y 73.232520 -U 0.000000 -V 0.000000 -T 0.000000
n -t 1.000000 -s 5 -x 28.405100 -y 72.652740 -U 0.000000 -V 0.000000 -T 0.000000
n -t 1.000000 -s 6 -x 71.789010 -y 0.187777 -U 0.000000 -V 0.000000 -T 0.000000
n -t 1.000000 -s 2 -x 17.711300 -y 26.056850 -U 0.000000 -V 0.000000 -T 0.000000
n -t 2.000000 -s 7 -x 52.355508 -y 85.730588 -U 0.000000 -V 0.000000 -T 0.000000
n -t 2.000000 -s 1 -x 64.265830 -y 92.082700 -U 0.000000 -V 0.000000 -T 0.000000
n -t 2.000000 -s 9 -x 62.605250 -y 73.232520 -U 0.000000 -V 0.000000 -T 0.000000
n -t 2.000000 -s 5 -x 28.405100 -y 72.652740 -U 0.000000 -V 0.000000 -T 0.000000
n -t 2.000000 -s 3 -x 77.547980 -y 54.833570 -U 0.000000 -V 0.000000 -T 0.000000
n -t 2.000000 -s 0 -x 77.879465 -y 61.032123 -U 0.000000 -V 0.000000 -T 0.000000
n -t 2.000000 -s 4 -x 91.986966 -y 82.109570 -U 0.000000 -V 0.000000 -T 0.000000
n -t 2.000000 -s 8 -x 77.341942 -y 31.158449 -U 0.000000 -V 0.000000 -T 0.000000
n -t 2.000000 -s 6 -x 71.789010 -y 0.187777 -U 0.000000 -V 0.000000 -T 0.000000
n -t 2.000000 -s 2 -x 17.711300 -y 26.056850 -U 0.000000 -V 0.000000 -T 0.000000
n -t 2.000000 -s 7 -x 52.355508 -y 85.730588 -U -0.913420 -V 0.407019 -T 4.207849
n -t 2.000000 -s 8 -x 77.341942 -y 31.158449 -U 0.729886 -V 0.683569 -T 6.245928
n -t 2.000000 -s 3 -x 77.547980 -y 54.833570 -U 0.298338 -V -0.954460 -T 13.462057
n -t 2.000000 -s 1 -x 64.265830 -y 92.082700 -U -0.959267 -V -0.282500 -T 16.422797
n -t 2.000000 -s 0 -x 77.879465 -y 61.032123 -U 0.189929 -V -0.981798 -T 19.400687
n -t 2.000000 -s 9 -x 62.605250 -y 73.232520 -U -0.704166 -V 0.710035 -T 20.014135
n -t 2.000000 -s 5 -x 28.405100 -y 72.652740 -U 0.805535 -V 0.592548 -T 24.960891
n -t 2.000000 -s 6 -x 71.789010 -y 0.187777 -U 0.275808 -V 0.961213 -T 36.662223
n -t 2.000000 -s 4 -x 91.986966 -y 82.109570 -U -0.251413 -V -0.967880 -T 41.456593
n -t 2.000000 -s 2 -x 17.711300 -y 26.056850 -U 0.989511 -V 0.144460 -T 64.869905
n -t 2.000000 -s 1 -x 64.265830 -y 92.082700 -U 0.000000 -V 0.000000 -T 0.000000
n -t 2.000000 -s 9 -x 62.605250 -y 73.232520 -U 0.000000 -V 0.000000 -T 0.000000
n -t 2.000000 -s 5 -x 28.405100 -y 72.652740 -U 0.000000 -V 0.000000 -T 0.000000
n -t 2.000000 -s 6 -x 71.789010 -y 0.187777 -U 0.000000 -V 0.000000 -T 0.000000
n -t 2.000000 -s 2 -x 17.711300 -y 26.056850 -U 0.000000 -V 0.000000 -T 0.000000
n -t 3.000000 -s 7 -x 51.442089 -y 86.137607 -U 0.000000 -V 0.000000 -T 0.000000
n -t 3.000000 -s 1 -x 64.265830 -y 92.082700 -U 0.000000 -V 0.000000 -T 0.000000
n -t 3.000000 -s 9 -x 62.605250 -y 73.232520 -U 0.000000 -V 0.000000 -T 0.000000
n -t 3.000000 -s 5 -x 28.405100 -y 72.652740 -U 0.000000 -V 0.000000 -T 0.000000
n -t 3.000000 -s 3 -x 77.846318 -y 53.879110 -U 0.000000 -V 0.000000 -T 0.000000
n -t 3.000000 -s 0 -x 78.069394 -y 60.050325 -U 0.000000 -V 0.000000 -T 0.000000
n -t 3.000000 -s 4 -x 91.735553 -y 81.141690 -U 0.000000 -V 0.000000 -T 0.000000
n -t 3.000000 -s 8 -x 78.071828 -y 31.842017 -U 0.000000 -V 0.000000 -T 0.000000
n -t 3.000000 -s 6 -x 71.789010 -y 0.187777 -U 0.000000 -V 0.000000 -T 0.000000
n -t 3.000000 -s 2 -x 17.711300 -y 26.056850 -U 0.000000 -V 0.000000 -T 0.000000
n -t 3.000000 -s 7 -x 51.442089 -y 86.137607 -U -0.914281 -V 0.405081 -T 2.980274
n -t 3.000000 -s 8 -x 78.071828 -y 31.842017 -U 0.644861 -V 0.764300 -T 5.578112
n -t 3.000000 -s 3 -x 77.846318 -y 53.879110 -U 0.164726 -V -0.986339 -T 11.047387
n -t 3.000000 -s 1 -x 64.265830 -y 92.082700 -U -0.956577 -V -0.291481 -T 16.254368
n -t 3.000000 -s 0 -x 78.069394 -y 60.050325 -U 0.093145 -V -0.995653 -T 17.142213
n -t 3.000000 -s 9 -x 62.605250 -y 73.232520 -U -0.701418 -V 0.712750 -T 19.799844
n -t 3.000000 -s 5 -x 28.405100 -y 72.652740 -U 0.810258 -V 0.586073 -T 25.068768
n -t 3.000000 -s 6 -x 71.789010 -y 0.187777 -U 0.265221 -V 0.964188 -T 37.251662
n -t 3.000000 -s 4 -x 91.735553 -y 81.141690 -U -0.301568 -V -0.953445 -T 40.022304
n -t 3.000000 -s 2 -x 17.711300 -y 26.056850 -U 0.964649 -V 0.263538 -T 64.225234
n -t 3.000000 -s 1 -x 64.265830 -y 92.082700 -U 0.000000 -V 0.000000 -T 0.000000
n -t 3.000000 -s 9 -x 62.605250 -y 73.232520 -U 0.000000 -V 0.000000 -T 0.000000
n -t 3.000000 -s 5 -x 28.405100 -y 72.652740 -U 0.000000 -V 0.000000 -T 0.000000
n -t 3.000000 -s 6 -x 71.789010 -y 0.187777 -U 0.000000 -V 0.000000 -T 0.000000
n -t 4.000000 -s 7 -x 50.527808 -y 86.542689 -U 0.000000 -V 0.000000 -T 0.000000
n -t 4.000000 -s 1 -x 64.265830 -y 92.082700 -U 0.000000 -V 0.000000 -T 0.000000
n -t 4.000000 -s 9 -x 62.605250 -y 73.232520 -U 0.000000 -V 0.000000 -T 0.000000
n -t 4.000000 -s 5 -x 28.405100 -y 72.652740 -U 0.000000 -V 0.000000 -T 0.000000
n -t 4.000000 -s 3 -x 78.011044 -y 52.892771 -U 0.000000 -V 0.000000 -T 0.000000
n -t 4.000000 -s 0 -x 78.162539 -y 59.054673 -U 0.000000 -V 0.000000 -T 0.000000
n -t 4.000000 -s 4 -x 91.433985 -y 80.188245 -U 0.000000 -V 0.000000 -T 0.000000
n -t 4.000000 -s 2 -x 18.675949 -y 26.320388 -U 0.000000 -V 0.000000 -T 0.000000
n -t 4.000000 -s 8 -x 78.716689 -y 32.606317 -U 0.000000 -V 0.000000 -T 0.000000
n -t 4.000000 -s 6 -x 71.789010 -y 0.187777 -U 0.000000 -V 0.000000 -T 0.000000
n -t 4.000000 -s 7 -x 50.527808 -y 86.542689 -U -0.920966 -V 0.389642 -T 1.267235
n -t 4.000000 -s 8 -x 78.716689 -y 32.606317 -U 0.368087 -V 0.929791 -T 6.046616
n -t 4.000000 -s 3 -x 78.011044 -y 52.892771 -U -0.027262 -V -0.999628 -T 8.915381
n -t 4.000000 -s 0 -x 78.162539 -y 59.054673 -U -0.026165 -V -0.999658 -T 15.079132
n -t 4.000000 -s 1 -x 64.265830 -y 92.082700 -U -0.947188 -V -0.320678 -T 15.736158
n -t 4.000000 -s 9 -x 62.605250 -y 73.232520 -U -0.692334 -V 0.721577 -T 19.130239
n -t 4.000000 -s 5 -x 28.405100 -y 72.652740 -U 0.824469 -V 0.565907 -T 25.417113
n -t 4.000000 -s 4 -x 91.433985 -y 80.188245 -U -0.353120 -V -0.935578 -T 38.700716
n -t 4.000000 -s 6 -x 71.789010 -y 0.187777 -U 0.233943 -V 0.972250 -T 39.126380
n -t 4.000000 -s 2 -x 18.675949 -y 26.320388 -U 0.958126 -V 0.286347 -T 61.674603
n -t 4.000000 -s 1 -x 64.265830 -y 92.082700 -U 0.000000 -V 0.000000 -T 0.000000
n -t 4.000000 -s 9 -x 62.605250 -y 73.232520 -U 0.000000 -V 0.000000 -T 0.000000
n -t 4.000000 -s 5 -x 28.405100 -y 72.652740 -U 0.000000 -V 0.000000 -T 0.000000
n -t 4.000000 -s 0 -x 78.162539 -y 59.054673 -U 0.000000 -V 0.000000 -T 0.000000
n -t 4.000000 -s 4 -x 91.433985 -y 80.188245 -U 0.000000 -V 0.000000 -T 0.000000
n -t 4.000000 -s 2 -x 18.675949 -y 26.320388 -U 0.000000 -V 0.000000 -T 0.000000
n -t 4.000000 -s 6 -x 71.789010 -y 0.187777 -U 0.000000 -V 0.000000 -T 0.000000
n -t 5.000000 -s 1 -x 64.265830 -y 92.082700 -U 0.000000 -V 0.000000 -T 0.000000
n -t 5.000000 -s 9 -x 62.605250 -y 73.232520 -U 0.000000 -V 0.000000 -T 0.000000
n -t 5.000000 -s 5 -x 28.405100 -y 72.652740 -U 0.000000 -V 0.000000 -T 0.000000
n -t 5.000000 -s 0 -x 78.162539 -y 59.054673 -U 0.000000 -V 0.000000 -T 0.000000
n -t 5.000000 -s 4 -x 91.433985 -y 80.188245 -U 0.000000 -V 0.000000 -T 0.000000
n -t 5.000000 -s 2 -x 18.675949 -y 26.320388 -U 0.000000 -V 0.000000 -T 0.000000
n -t 5.000000 -s 6 -x 71.789010 -y 0.187777 -U 0.000000 -V 0.000000 -T 0.000000
n -t 6.000000 -s 1 -x 64.265830 -y 92.082700 -U 0.000000 -V 0.000000 -T 0.000000
n -t 6.000000 -s 9 -x 62.605250 -y 73.232520 -U 0.000000 -V 0.000000 -T 0.000000
n -t 6.000000 -s 5 -x 28.405100 -y 72.652740 -U 0.000000 -V 0.000000 -T 0.000000
n -t 6.000000 -s 0 -x 78.162539 -y 59.054673 -U 0.000000 -V 0.000000 -T 0.000000
n -t 6.000000 -s 4 -x 91.433985 -y 80.188245 -U 0.000000 -V 0.000000 -T 0.000000
n -t 6.000000 -s 2 -x 18.675949 -y 26.320388 -U 0.000000 -V 0.000000 -T 0.000000
n -t 7.000000 -s 7 -x 49.360727 -y 87.036456 -U 0.000000 -V 0.000000 -T 0.000000
n -t 7.000000 -s 1 -x 64.265830 -y 92.082700 -U 0.000000 -V 0.000000 -T 0.000000
n -t 7.000000 -s 9 -x 62.605250 -y 73.232520 -U 0.000000 -V 0.000000 -T 0.000000
n -t 7.000000 -s 5 -x 28.405100 -y 72.652740 -U 0.000000 -V 0.000000 -T 0.000000
n -t 7.000000 -s 3 -x 77.929259 -y 49.893886 -U 0.000000 -V 0.000000 -T 0.000000
n -t 7.000000 -s 0 -x 78.162539 -y 59.054673 -U 0.000000 -V 0.000000 -T 0.000000
n -t 7.000000 -s 4 -x 91.433985 -y 80.188245 -U 0.000000 -V 0.000000 -T 0.000000
n -t 7.000000 -s 2 -x 18.675949 -y 26.320388 -U 0.000000 -V 0.000000 -T 0.000000
n -t 7.000000 -s 8 -x 79.820951 -y 35.395691 -U 0.000000 -V 0.000000 -T 0.000000
n -t 7.000000 -s 6 -x 71.789010 -y 0.187777 -U 0.000000 -V 0.000000 -T 0.000000
n -t 7.000000 -s 7 -x 49.360727 -y 87.036456 -U 0.901769 -V -0.432219 -T 2.140612
n -t 7.000000 -s 3 -x 77.929259 -y 49.893886 -U 0.033656 -V -0.999433 -T 3.175118
n -t 7.000000 -s 8 -x 79.820951 -y 35.395691 -U -0.155681 -V 0.987807 -T 11.464660
n -t 7.000000 -s 0 -x 78.162539 -y 59.054673 -U -0.010249 -V -0.999947 -T 12.334754
n -t 7.000000 -s 1 -x 64.265830 -y 92.082700 -U -0.908409 -V -0.418083 -T 14.282956
n -t 7.000000 -s 9 -x 62.605250 -y 73.232520 -U -0.660000 -V 0.751266 -T 17.142704
n -t 7.000000 -s 5 -x 28.405100 -y 72.652740 -U 0.861997 -V 0.506913 -T 26.549928
n -t 7.000000 -s 4 -x 91.433985 -y 80.188245 -U -0.371649 -V -0.928373 -T 36.049804
n -t 7.000000 -s 6 -x 71.789010 -y 0.187777 -U 0.047616 -V 0.998866 -T 45.841053
n -t 7.000000 -s 2 -x 18.675949 -y 26.320388 -U 0.942238 -V 0.334945 -T 58.685633
n -t 7.000000 -s 1 -x 64.265830 -y 92.082700 -U 0.000000 -V 0.000000 -T 0.000000
n -t 7.000000 -s 9 -x 62.605250 -y 73.232520 -U 0.000000 -V 0.000000 -T 0.000000
n -t 7.000000 -s 5 -x 28.405100 -y 72.652740 -U 0.000000 -V 0.000000 -T 0.000000
n -t 7.000000 -s 8 -x 79.820951 -y 35.395691 -U 0.000000 -V 0.000000 -T 0.000000
n -t 7.000000 -s 0 -x 78.162539 -y 59.054673 -U 0.000000 -V 0.000000 -T 0.000000
n -t 7.000000 -s 4 -x 91.433985 -y 80.188245 -U 0.000000 -V 0.000000 -T 0.000000
n -t 8.000000 -s 7 -x 50.262496 -y 86.604237 -U 0.000000 -V 0.000000 -T 0.000000
n -t 8.000000 -s 1 -x 64.265830 -y 92.082700 -U 0.000000 -V 0.000000 -T 0.000000
n -t 8.000000 -s 9 -x 62.605250 -y 73.232520 -U 0.000000 -V 0.000000 -T 0.000000
n -t 8.000000 -s 5 -x 28.405100 -y 72.652740 -U 0.000000 -V 0.000000 -T 0.000000
n -t 8.000000 -s 6 -x 71.836626 -y 1.186643 -U 0.000000 -V 0.000000 -T 0.000000
n -t 8.000000 -s 2 -x 19.618187 -y 26.655333 -U 0.000000 -V 0.000000 -T 0.000000
n -t 8.000000 -s 3 -x 77.962914 -y 48.894452 -U 0.000000 -V 0.000000 -T 0.000000
n -t 8.000000 -s 8 -x 79.820951 -y 35.395691 -U 0.000000 -V 0.000000 -T 0.000000
n -t 8.000000 -s 0 -x 78.162539 -y 59.054673 -U 0.000000 -V 0.000000 -T 0.000000
n -t 8.000000 -s 4 -x 91.433985 -y 80.188245 -U 0.000000 -V 0.000000 -T 0.000000
n -t 8.000000 -s 7 -x 50.262496 -y 86.604237 -U 0.901769 -V -0.432219 -T 1.854150
n -t 8.000000 -s 3 -x 77.962914 -y 48.894452 -U 0.033656 -V -0.999433 -T 2.175118
n -t 8.000000 -s 8 -x 79.820951 -y 35.395691 -U -0.155681 -V 0.987807 -T 11.464660
n -t 8.000000 -s 0 -x 78.162539 -y 59.054673 -U -0.010249 -V -0.999947 -T 12.334754
n -t 8.000000 -s 1 -x 64.265830 -y 92.082700 -U -0.891102 -V -0.453803 -T 13.838284
n -t 8.000000 -s 9 -x 62.605250 -y 73.232520 -U -0.647154 -V 0.762359 -T 16.488711
n -t 8.000000 -s 5 -x 28.405100 -y 72.652740 -U 0.872923 -V 0.487858 -T 26.954744
n -t 8.000000 -s 4 -x 91.433985 -y 80.188245 -U -0.371649 -V -0.928373 -T 36.049804
n -t 8.000000 -s 6 -x 71.836626 -y 1.186643 -U 0.134906 -V 0.990858 -T 45.954019
n -t 8.000000 -s 2 -x 19.618187 -y 26.655333 -U 0.921438 -V 0.388526 -T 54.867910
n -t 8.000000 -s 1 -x 64.265830 -y 92.082700 -U 0.000000 -V 0.000000 -T 0.000000
n -t 8.000000 -s 9 -x 62.605250 -y 73.232520 -U 0.000000 -V 0.000000 -T 0.000000
n -t 8.000000 -s 5 -x 28.405100 -y 72.652740 -U 0.000000 -V 0.000000 -T 0.000000
n -t 8.000000 -s 8 -x 79.820951 -y 35.395691 -U 0.000000 -V 0.000000 -T 0.000000
n -t 8.000000 -s 0 -x 78.162539 -y 59.054673 -U 0.000000 -V 0.000000 -T 0.000000
n -t 8.000000 -s 4 -x 91.433985 -y 80.188245 -U 0.000000 -V 0.000000 -T 0.000000
n -t 8.000000 -s 6 -x 71.836626 -y 1.186643 -U 0.000000 -V 0.000000 -T 0.000000
n -t 9.000000 -s 7 -x 51.164264 -y 86.172018 -U 0.000000 -V 0.000000 -T 0.000000
n -t 9.000000 -s 1 -x 64.265830 -y 92.082700 -U 0.000000 -V 0.000000 -T 0.000000
n -t 9.000000 -s 9 -x 62.605250 -y 73.232520 -U 0.000000 -V 0.000000 -T 0.000000
n -t 9.000000 -s 5 -x 28.405100 -y 72.652740 -U 0.000000 -V 0.000000 -T 0.000000
n -t 9.000000 -s 2 -x 20.539624 -y 27.043859 -U 0.000000 -V 0.000000 -T 0.000000
n -t 9.000000 -s 3 -x 77.996570 -y 47.895019 -U 0.000000 -V 0.000000 -T 0.000000
n -t 9.000000 -s 8 -x 79.820951 -y 35.395691 -U 0.000000 -V 0.000000 -T 0.000000
n -t 9.000000 -s 0 -x 78.162539 -y 59.054673 -U 0.000000 -V 0.000000 -T 0.000000
n -t 9.000000 -s 4 -x 91.433985 -y 80.188245 -U 0.000000 -V 0.000000 -T 0.000000
n -t 9.000000 -s 6 -x 71.836626 -y 1.186643 -U 0.000000 -V 0.000000 -T 0.000000
n -t 9.000000 -s 3 -x 77.996570 -y 47.895019 -U -0.586569 -V 0.809899 -T 1.171241
n -t 9.000000 -s 7 -x 51.164264 -y 86.172018 -U 0.901769 -V -0.432219 -T 1.567687
n -t 9.000000 -s 0 -x 78.162539 -y 59.054673 -U -0.083245 -V -0.996529 -T 10.246632
n -t 9.000000 -s 1 -x 64.265830 -y 92.082700 -U -0.871135 -V -0.491044 -T 13.416842
n -t 9.000000 -s 8 -x 79.820951 -y 35.395691 -U -0.183576 -V 0.983006 -T 13.680406
n -t 9.000000 -s 9 -x 62.605250 -y 73.232520 -U -0.633042 -V 0.774118 -T 15.839860
n -t 9.000000 -s 5 -x 28.405100 -y 72.652740 -U 0.883118 -V 0.469151 -T 27.372177
n -t 9.000000 -s 4 -x 91.433985 -y 80.188245 -U -0.410832 -V -0.911711 -T 34.380022
n -t 9.000000 -s 6 -x 71.836626 -y 1.186643 -U -0.074279 -V 0.997238 -T 47.916758
n -t 9.000000 -s 2 -x 20.539624 -y 27.043859 -U 0.908723 -V 0.417399 -T 52.532835
n -t 9.000000 -s 1 -x 64.265830 -y 92.082700 -U 0.000000 -V 0.000000 -T 0.000000
n -t 9.000000 -s 9 -x 62.605250 -y 73.232520 -U 0.000000 -V 0.000000 -T 0.000000
n -t 9.000000 -s 5 -x 28.405100 -y 72.652740 -U 0.000000 -V 0.000000 -T 0.000000
n -t 9.000000 -s 0 -x 78.162539 -y 59.054673 -U 0.000000 -V 0.000000 -T 0.000000
n -t 9.000000 -s 8 -x 79.820951 -y 35.395691 -U 0.000000 -V 0.000000 -T 0.000000
n -t 9.000000 -s 4 -x 91.433985 -y 80.188245 -U 0.000000 -V 0.000000 -T 0.000000
n -t 10.000000 -s 7 -x 52.066033 -y 85.739799 -U 0.000000 -V 0.000000 -T 0.000000
n -t 10.000000 -s 1 -x 64.265830 -y 92.082700 -U 0.000000 -V 0.000000 -T 0.000000
n -t 10.000000 -s 9 -x 62.605250 -y 73.232520 -U 0.000000 -V 0.000000 -T 0.000000
n -t 10.000000 -s 5 -x 28.405100 -y 72.652740 -U 0.000000 -V 0.000000 -T 0.000000
n -t 10.000000 -s 6 -x 71.762347 -y 2.183881 -U 0.000000 -V 0.000000 -T 0.000000
n -t 10.000000 -s 2 -x 21.448348 -y 27.461259 -U 0.000000 -V 0.000000 -T 0.000000
n -t 10.000000 -s 3 -x 77.410001 -y 48.704918 -U 0.000000 -V 0.000000 -T 0.000000
n -t 10.000000 -s 0 -x 78.162539 -y 59.054673 -U 0.000000 -V 0.000000 -T 0.000000
n -t 10.000000 -s 8 -x 79.820951 -y 35.395691 -U 0.000000 -V 0.000000 -T 0.000000
n -t 10.000000 -s 4 -x 91.433985 -y 80.188245 -U 0.000000 -V 0.000000 -T 0.000000
n -t 10.000000 -s 7 -x 52.066033 -y 85.739799 -U 0.901769 -V -0.432219 -T 1.281225
n -t 10.000000 -s 3 -x 77.410001 -y 48.704918 -U -0.343415 -V 0.939184 -T 2.408185
n -t 10.000000 -s 0 -x 78.162539 -y 59.054673 -U -0.191673 -V -0.981459 -T 8.240822
n -t 10.000000 -s 1 -x 64.265830 -y 92.082700 -U -0.848209 -V -0.529662 -T 13.020886
n -t 10.000000 -s 9 -x 62.605250 -y 73.232520 -U -0.617488 -V 0.786580 -T 15.196809
n -t 10.000000 -s 8 -x 79.820951 -y 35.395691 -U -0.203593 -V 0.979056 -T 15.904056
n -t 10.000000 -s 5 -x 28.405100 -y 72.652740 -U 0.892619 -V 0.450811 -T 27.801658
n -t 10.000000 -s 4 -x 91.433985 -y 80.188245 -U -0.453066 -V -0.891477 -T 32.778863
n -t 10.000000 -s 6 -x 71.762347 -y 2.183881 -U -0.111943 -V 0.993715 -T 48.087462
n -t 10.000000 -s 2 -x 21.448348 -y 27.461259 -U 0.894090 -V 0.447888 -T 50.253304
n -t 10.000000 -s 1 -x 64.265830 -y 92.082700 -U 0.000000 -V 0.000000 -T 0.000000
n -t 10.000000 -s 9 -x 62.605250 -y 73.232520 -U 0.000000 -V 0.000000 -T 0.000000
n -t 10.000000 -s 5 -x 28.405100 -y 72.652740 -U 0.000000 -V 0.000000 -T 0.000000
n -t 10.000000 -s 0 -x 78.162539 -y 59.054673 -U 0.000000 -V 0.000000 -T 0.000000
n -t 10.000000 -s 8 -x 79.820951 -y 35.395691 -U 0.000000 -V 0.000000 -T 0.000000
n -t 10.000000 -s 4 -x 91.433985 -y 80.188245 -U 0.000000 -V 0.000000 -T 0.000000
n -t 11.000000 -s 7 -x 52.967802 -y 85.307580 -U 0.000000 -V 0.000000 -T 0.000000
n -t 11.000000 -s 1 -x 64.265830 -y 92.082700 -U 0.000000 -V 0.000000 -T 0.000000
n -t 11.000000 -s 9 -x 62.605250 -y 73.232520 -U 0.000000 -V 0.000000 -T 0.000000
n -t 11.000000 -s 5 -x 28.405100 -y 72.652740 -U 0.000000 -V 0.000000 -T 0.000000
n -t 11.000000 -s 6 -x 71.650404 -y 3.177595 -U 0.000000 -V 0.000000 -T 0.000000
n -t 11.000000 -s 2 -x 22.342437 -y 27.909146 -U 0.000000 -V 0.000000 -T 0.000000
n -t 11.000000 -s 3 -x 77.066585 -y 49.644102 -U 0.000000 -V 0.000000 -T 0.000000
n -t 11.000000 -s 0 -x 78.162539 -y 59.054673 -U 0.000000 -V 0.000000 -T 0.000000
n -t 11.000000 -s 8 -x 79.820951 -y 35.395691 -U 0.000000 -V 0.000000 -T 0.000000
n -t 11.000000 -s 4 -x 91.433985 -y 80.188245 -U 0.000000 -V 0.000000 -T 0.000000
n -t 11.000000 -s 7 -x 52.967802 -y 85.307580 -U 0.901769 -V -0.432219 -T 0.994762
n -t 11.000000 -s 3 -x 77.066585 -y 49.644102 -U -0.331375 -V 0.943499 -T 3.651920
n -t 11.000000 -s 0 -x 78.162539 -y 59.054673 -U -0.360597 -V -0.932722 -T 6.395250
n -t 11.000000 -s 1 -x 64.265830 -y 92.082700 -U -0.822030 -V -0.569445 -T 12.652808
n -t 11.000000 -s 9 -x 62.605250 -y 73.232520 -U -0.600289 -V 0.799783 -T 14.560326
n -t 11.000000 -s 8 -x 79.820951 -y 35.395691 -U -0.218639 -V 0.975806 -T 18.132701
n -t 11.000000 -s 5 -x 28.405100 -y 72.652740 -U 0.901465 -V 0.432852 -T 28.242637
n -t 11.000000 -s 4 -x 91.433985 -y 80.188245 -U -0.498372 -V -0.866963 -T 31.256874
n -t 11.000000 -s 2 -x 22.342437 -y 27.909146 -U 0.877254 -V 0.480027 -T 48.034857
n -t 11.000000 -s 6 -x 71.650404 -y 3.177595 -U -0.148356 -V 0.988934 -T 48.324324
n -t 11.000000 -s 1 -x 64.265830 -y 92.082700 -U 0.000000 -V 0.000000 -T 0.000000
n -t 11.000000 -s 9 -x 62.605250 -y 73.232520 -U 0.000000 -V 0.000000 -T 0.000000
n -t 11.000000 -s 5 -x 28.405100 -y 72.652740 -U 0.000000 -V 0.000000 -T 0.000000
n -t 11.000000 -s 3 -x 77.066585 -y 49.644102 -U 0.000000 -V 0.000000 -T 0.000000
n -t 11.000000 -s 8 -x 79.820951 -y 35.395691 -U 0.000000 -V 0.000000 -T 0.000000
n -t 11.000000 -s 4 -x 91.433985 -y 80.188245 -U 0.000000 -V 0.000000 -T 0.000000
n -t 12.000000 -s 7 -x 53.864847 -y 84.877625 -U 0.000000 -V 0.000000 -T 0.000000
n -t 12.000000 -s 1 -x 64.265830 -y 92.082700 -U 0.000000 -V 0.000000 -T 0.000000
n -t 12.000000 -s 9 -x 62.605250 -y 73.232520 -U 0.000000 -V 0.000000 -T 0.000000
n -t 12.000000 -s 5 -x 28.405100 -y 72.652740 -U 0.000000 -V 0.000000 -T 0.000000
n -t 12.000000 -s 2 -x 23.219691 -y 28.389173 -U 0.000000 -V 0.000000 -T 0.000000
n -t 12.000000 -s 6 -x 71.502048 -y 4.166529 -U 0.000000 -V 0.000000 -T 0.000000
n -t 12.000000 -s 3 -x 77.066585 -y 49.644102 -U 0.000000 -V 0.000000 -T 0.000000
n -t 12.000000 -s 0 -x 77.801942 -y 58.121951 -U 0.000000 -V 0.000000 -T 0.000000
n -t 12.000000 -s 8 -x 79.820951 -y 35.395691 -U 0.000000 -V 0.000000 -T 0.000000
n -t 12.000000 -s 4 -x 91.433985 -y 80.188245 -U 0.000000 -V 0.000000 -T 0.000000
n -t 12.000000 -s 7 -x 53.864847 -y 84.877625 -U 0.901769 -V -0.432219 -T 1.386977
n -t 12.000000 -s 0 -x 77.801942 -y 58.121951 -U -0.965510 -V -0.260367 -T 3.477757
n -t 12.000000 -s 3 -x 77.066585 -y 49.644102 -U -0.327250 -V 0.944938 -T 8.013603
n -t 12.000000 -s 1 -x 64.265830 -y 92.082700 -U -0.760837 -V -0.648943 -T 12.026559
n -t 12.000000 -s 9 -x 62.605250 -y 73.232520 -U -0.561215 -V 0.827670 -T 13.345450
n -t 12.000000 -s 8 -x 79.820951 -y 35.395691 -U -0.239252 -V 0.970958 -T 22.473452
n -t 12.000000 -s 4 -x 91.433985 -y 80.188245 -U -0.594633 -V -0.803997 -T 28.571980
n -t 12.000000 -s 5 -x 28.405100 -y 72.652740 -U 0.916917 -V 0.399077 -T 29.130737
n -t 12.000000 -s 2 -x 23.219691 -y 28.389173 -U 0.857896 -V 0.513823 -T 45.883628
n -t 12.000000 -s 6 -x 71.502048 -y 4.166529 -U -0.183428 -V 0.983033 -T 48.623693
n -t 12.000000 -s 1 -x 64.265830 -y 92.082700 -U 0.000000 -V 0.000000 -T 0.000000
n -t 12.000000 -s 9 -x 62.605250 -y 73.232520 -U 0.000000 -V 0.000000 -T 0.000000
n -t 12.000000 -s 5 -x 28.405100 -y 72.652740 -U 0.000000 -V 0.000000 -T 0.000000
n -t 12.000000 -s 3 -x 77.066585 -y 49.644102 -U 0.000000 -V 0.000000 -T 0.000000
n -t 12.000000 -s 8 -x 79.820951 -y 35.395691 -U 0.000000 -V 0.000000 -T 0.000000
n -t 12.000000 -s 4 -x 91.433985 -y 80.188245 -U 0.000000 -V 0.000000 -T 0.000000
n -t 13.000000 -s 7 -x 54.766616 -y 84.445406 -U 0.000000 -V 0.000000 -T 0.000000
n -t 13.000000 -s 1 -x 64.265830 -y 92.082700 -U 0.000000 -V 0.000000 -T 0.000000
n -t 13.000000 -s 9 -x 62.605250 -y 73.232520 -U 0.000000 -V 0.000000 -T 0.000000
n -t 13.000000 -s 5 -x 28.405100 -y 72.652740 -U 0.000000 -V 0.000000 -T 0.000000
n -t 13.000000 -s 2 -x 24.077587 -y 28.902996 -U 0.000000 -V 0.000000 -T 0.000000
n -t 13.000000 -s 6 -x 71.318620 -y 5.149562 -U 0.000000 -V 0.000000 -T 0.000000
n -t 13.000000 -s 0 -x 76.836432 -y 57.861584 -U 0.000000 -V 0.000000 -T 0.000000
n -t 13.000000 -s 3 -x 77.066585 -y 49.644102 -U 0.000000 -V 0.000000 -T 0.000000
n -t 13.000000 -s 8 -x 79.820951 -y 35.395691 -U 0.000000 -V 0.000000 -T 0.000000
n -t 13.000000 -s 4 -x 91.433985 -y 80.188245 -U 0.000000 -V 0.000000 -T 0.000000
n -t 13.000000 -s 7 -x 54.766616 -y 84.445406 -U 0.901769 -V -0.432219 -T 1.095236
n -t 13.000000 -s 0 -x 76.836432 -y 57.861584 -U -0.905150 -V 0.425092 -T 3.439744
n -t 13.000000 -s 3 -x 77.066585 -y 49.644102 -U -0.326498 -V 0.945198 -T 10.240913
n -t 13.000000 -s 1 -x 64.265830 -y 92.082700 -U -0.723950 -V -0.689852 -T 11.757117
n -t 13.000000 -s 9 -x 62.605250 -y 73.232520 -U -0.537811 -V 0.843065 -T 12.738640
n -t 13.000000 -s 8 -x 79.820951 -y 35.395691 -U -0.246954 -V 0.969027 -T 24.692905
n -t 13.000000 -s 4 -x 91.433985 -y 80.188245 -U -0.647145 -V -0.762367 -T 27.367981
n -t 13.000000 -s 5 -x 28.405100 -y 72.652740 -U 0.923988 -V 0.382421 -T 29.599037
n -t 13.000000 -s 2 -x 24.077587 -y 28.902996 -U 0.835663 -V 0.549242 -T 43.806377
n -t 13.000000 -s 6 -x 71.318620 -y 5.149562 -U -0.217093 -V 0.976151 -T 48.981909
n -t 13.000000 -s 1 -x 64.265830 -y 92.082700 -U 0.000000 -V 0.000000 -T 0.000000
n -t 13.000000 -s 9 -x 62.605250 -y 73.232520 -U 0.000000 -V 0.000000 -T 0.000000
n -t 13.000000 -s 5 -x 28.405100 -y 72.652740 -U 0.000000 -V 0.000000 -T 0.000000
n -t 13.000000 -s 3 -x 77.066585 -y 49.644102 -U 0.000000 -V 0.000000 -T 0.000000
n -t 13.000000 -s 8 -x 79.820951 -y 35.395691 -U 0.000000 -V 0.000000 -T 0.000000
n -t 13.000000 -s 4 -x 91.433985 -y 80.188245 -U 0.000000 -V 0.000000 -T 0.000000
n -t 14.000000 -s 7 -x 55.668385 -y 84.013187 -U 0.000000 -V 0.000000 -T 0.000000
n -t 14.000000 -s 1 -x 64.265830 -y 92.082700 -U 0.000000 -V 0.000000 -T 0.000000
n -t 14.000000 -s 9 -x 62.605250 -y 73.232520 -U 0.000000 -V 0.000000 -T 0.000000
n -t 14.000000 -s 5 -x 28.405100 -y 72.652740 -U 0.000000 -V 0.000000 -T 0.000000
n -t 14.000000 -s 2 -x 24.913251 -y 29.452238 -U 0.000000 -V 0.000000 -T 0.000000
n -t 14.000000 -s 6 -x 71.101527 -y 6.125713 -U 0.000000 -V 0.000000 -T 0.000000
n -t 14.000000 -s 0 -x 75.931282 -y 58.286676 -U 0.000000 -V 0.000000 -T 0.000000
n -t 14.000000 -s 3 -x 77.066585 -y 49.644102 -U 0.000000 -V 0.000000 -T 0.000000
n -t 14.000000 -s 8 -x 79.820951 -y 35.395691 -U 0.000000 -V 0.000000 -T 0.000000
n -t 14.000000 -s 4 -x 91.433985 -y 80.188245 -U 0.000000 -V 0.000000 -T 0.000000
n -t 14.000000 -s 7 -x 55.668385 -y 84.013187 -U 0.901769 -V -0.432219 -T 0.809665
n -t 14.000000 -s 0 -x 75.931282 -y 58.286676 -U -0.680316 -V 0.732919 -T 4.315358
n -t 14.000000 -s 1 -x 64.265830 -y 92.082700 -U -0.682742 -V -0.730659 -T 11.523110
n -t 14.000000 -s 9 -x 62.605250 -y 73.232520 -U -0.511361 -V 0.859366 -T 12.137683
n -t 14.000000 -s 3 -x 77.066585 -y 49.644102 -U -0.326011 -V 0.945366 -T 12.487633
n -t 14.000000 -s 4 -x 91.433985 -y 80.188245 -U -0.701373 -V -0.712794 -T 26.289158
n -t 14.000000 -s 8 -x 79.820951 -y 35.395691 -U -0.253424 -V 0.967355 -T 26.933013
n -t 14.000000 -s 5 -x 28.405100 -y 72.652740 -U 0.930603 -V 0.366029 -T 30.080929
n -t 14.000000 -s 2 -x 24.913251 -y 29.452238 -U 0.810170 -V 0.586195 -T 41.810507
n -t 14.000000 -s 6 -x 71.101527 -y 6.125713 -U -0.249308 -V 0.968424 -T 49.395345
n -t 14.000000 -s 1 -x 64.265830 -y 92.082700 -U 0.000000 -V 0.000000 -T 0.000000
n -t 14.000000 -s 9 -x 62.605250 -y 73.232520 -U 0.000000 -V 0.000000 -T 0.000000
n -t 14.000000 -s 5 -x 28.405100 -y 72.652740 -U 0.000000 -V 0.000000 -T 0.000000
n -t 14.000000 -s 3 -x 77.066585 -y 49.644102 -U 0.000000 -V 0.000000 -T 0.000000
n -t 14.000000 -s 4 -x 91.433985 -y 80.188245 -U 0.000000 -V 0.000000 -T 0.000000
n -t 14.000000 -s 8 -x 79.820951 -y 35.395691 -U 0.000000 -V 0.000000 -T 0.000000
n -t 15.000000 -s 7 -x 56.398515 -y 83.663234 -U 0.000000 -V 0.000000 -T 0.000000
n -t 15.000000 -s 1 -x 64.265830 -y 92.082700 -U 0.000000 -V 0.000000 -T 0.000000
n -t 15.000000 -s 9 -x 62.605250 -y 73.232520 -U 0.000000 -V 0.000000 -T 0.000000
n -t 15.000000 -s 5 -x 28.405100 -y 72.652740 -U 0.000000 -V 0.000000 -T 0.000000
n -t 15.000000 -s 2 -x 25.723421 -y 30.038433 -U 0.000000 -V 0.000000 -T 0.000000
n -t 15.000000 -s 6 -x 70.852219 -y 7.094137 -U 0.000000 -V 0.000000 -T 0.000000
n -t 15.000000 -s 0 -x 75.250966 -y 59.019595 -U 0.000000 -V 0.000000 -T 0.000000
n -t 15.000000 -s 3 -x 77.066585 -y 49.644102 -U 0.000000 -V 0.000000 -T 0.000000