n -t * -s 0  -x 37.550440000000002 -y 96.475340000000003 -Z 0 -z 1  -v circle -c black
n -t * -s 1  -x 69.152330000000006 -y 46.728589999999997 -Z 0 -z 1  -v circle -c black
n -t * -s 2  -x 80.850440000000006 -y 46.55254 -Z 0 -z 1  -v circle -c black
n -t * -s 3  -x 56.306939999999997 -y 86.832930000000005 -Z 0 -z 1  -v circle -c black
n -t * -s 4  -x 59.156199999999998 -y 23.449839999999998 -Z 0 -z 1  -v circle -c black
n -t * -s 5  -x 94.637010000000004 -y 66.856369999999998 -Z 0 -z 1  -v circle -c black
n -t * -s 6  -x 1.106044 -y 60.427140000000001 -Z 0 -z 1  -v circle -c black
n -t * -s 7  -x 91.581639999999993 -y 37.656820000000003 -Z 0 -z 1  -v circle -c black
n -t * -s 8  -x 34.245849999999997 -y 81.011589999999998 -Z 0 -z 1  -v circle -c black
n -t * -s 9  -x 75.820220000000006 -y 65.975459999999998 -Z 0 -z 1  -v circle -c black
n -t * -s 10  -x 65.532129999999995 -y 20.566120000000002 -Z 0 -z 1  -v circle -c black
n -t * -s 11  -x 91.986260000000001 -y 44.285589999999999 -Z 0 -z 1  -v circle -c black
n -t * -s 12  -x 22.33512 -y 67.473849999999999 -Z 0 -z 1  -v circle -c black
n -t * -s 13  -x 19.616219999999998 -y 0.71020369999999999 -Z 0 -z 1  -v circle -c black
n -t * -s 14  -x 67.08614 -y 64.137630000000001 -Z 0 -z 1  -v circle -c black
n -t * -s 15  -x 88.566950000000006 -y 57.7166 -Z 0 -z 1  -v circle -c black
n -t * -s 16  -x 10.911049999999999 -y 56.829650000000001 -Z 0 -z 1  -v circle -c black
n -t * -s 17  -x 47.339550000000003 -y 77.031059999999997 -Z 0 -z 1  -v circle -c black
n -t * -s 18  -x 63.487119999999997 -y 22.216709999999999 -Z 0 -z 1  -v circle -c black
n -t * -s 19  -x 71.370980000000003 -y 62.52693 -Z 0 -z 1  -v circle -c black
n -t * -s 20  -x 11.721719999999999 -y 53.986759999999997 -Z 0 -z 2  -v circle -c black
V -t * -v 1.0a5 -a 0
W -t * -x 100 -y 100
A -t * -n 1 -p 0 -o 0x7fffffff -c 30 -a 1
A -t * -h 1 -m 1073741823 -s 0
n -t 0 -s 20 -S COLOR -c red -o black -i red -I black
n -t 0.000000 -s 20 -x 11.721720 -y 53.986760 -U 1.399750 -V -1.331263 -T 40.242451
n -t 0.000000 -s 6 -x 1.106044 -y 60.427140 -U 0.854961 -V -0.518693 -T 7.416564
n -t 0.000000 -s 8 -x 34.245850 -y 81.011590 -U -0.640242 -V -0.768173 -T 30.180646
n -t 0.000000 -s 12 -x 22.335120 -y 67.473850 -U -0.618412 -V -0.785854 -T 12.162338
n -t 0.000000 -s 17 -x 47.339550 -y 77.031060 -U -0.839597 -V -0.543209 -T 37.422513
n -t 0.000000 -s 6 -x 1.106044 -y 60.427140 -U 0.000000 -V 0.000000 -T 0.000000
n -t 0.000000 -s 8 -x 34.245850 -y 81.011590 -U 0.000000 -V 0.000000 -T 0.000000
n -t 0.000000 -s 12 -x 22.335120 -y 67.473850 -U 0.000000 -V 0.000000 -T 0.000000
n -t 0.000000 -s 17 -x 47.339550 -y 77.031060 -U 0.000000 -V 0.000000 -T 0.000000
n -t 1.000000 -s 6 -x 1.106044 -y 60.427140 -U 0.000000 -V 0.000000 -T 0.000000
n -t 1.000000 -s 8 -x 34.245850 -y 81.011590 -U 0.000000 -V 0.000000 -T 0.000000
n -t 1.000000 -s 12 -x 22.335120 -y 67.473850 -U 0.000000 -V 0.000000 -T 0.000000
n -t 1.000000 -s 17 -x 47.339550 -y 77.031060 -U 0.000000 -V 0.000000 -T 0.000000
n -t 2.000000 -s 6 -x 1.106044 -y 60.427140 -U 0.000000 -V 0.000000 -T 0.000000
n -t 2.000000 -s 8 -x 34.245850 -y 81.011590 -U 0.000000 -V 0.000000 -T 0.000000
n -t 2.000000 -s 12 -x 22.335120 -y 67.473850 -U 0.000000 -V 0.000000 -T 0.000000
n -t 2.000000 -s 17 -x 47.339550 -y 77.031060 -U 0.000000 -V 0.000000 -T 0.000000
n -t 3.000000 -s 6 -x 1.106044 -y 60.427140 -U 0.000000 -V 0.000000 -T 0.000000
n -t 3.000000 -s 8 -x 34.245850 -y 81.011590 -U 0.000000 -V 0.000000 -T 0.000000
n -t 3.000000 -s 12 -x 22.335120 -y 67.473850 -U 0.000000 -V 0.000000 -T 0.000000
n -t 3.000000 -s 17 -x 47.339550 -y 77.031060 -U 0.000000 -V 0.000000 -T 0.000000
n -t 5.000000 -s 6 -x 1.106044 -y 60.427140 -U 0.802489 -V -0.596667 -T 16.949748
n -t 5.000000 -s 8 -x 34.245850 -y 81.011590 -U -0.418619 -V -0.908162 -T 32.087151
n -t 5.000000 -s 12 -x 22.335120 -y 67.473850 -U -0.176625 -V -0.984278 -T 15.465150
n -t 5.000000 -s 16 -x 10.911050 -y 56.829650 -U 0.635055 -V -0.772467 -T 7.297233
n -t 5.000000 -s 17 -x 47.339550 -y 77.031060 -U -0.693874 -V -0.720096 -T 36.245339
n -t 6.000000 -s 6 -x 1.908533 -y 59.830473 -U 0.796364 -V -0.604817 -T 17.868542
n -t 6.000000 -s 8 -x 33.827231 -y 80.103428 -U -0.372922 -V -0.927863 -T 31.755700
n -t 6.000000 -s 12 -x 22.158495 -y 66.489572 -U -0.098986 -V -0.995089 -T 15.591516
n -t 6.000000 -s 16 -x 11.546105 -y 56.057183 -U 0.648738 -V -0.761012 -T 8.216612
n -t 6.000000 -s 17 -x 46.645676 -y 76.310964 -U -0.658542 -V -0.752544 -T 35.279072
n -t 7.000000 -s 6 -x 2.704897 -y 59.225656 -U 0.790902 -V -0.611942 -T 18.789382
n -t 7.000000 -s 8 -x 33.454309 -y 79.175565 -U -0.326851 -V -0.945076 -T 31.513091
n -t 7.000000 -s 12 -x 22.059509 -y 65.494483 -U -0.025897 -V -0.999665 -T 15.833548
n -t 7.000000 -s 16 -x 12.194843 -y 55.296171 -U 0.659522 -V -0.751685 -T 9.139227
n -t 7.000000 -s 17 -x 45.987134 -y 75.558420 -U -0.620893 -V -0.783895 -T 34.406405
n -t 8.000000 -s 4 -x 59.156200 -y 23.449840 -U -0.876657 -V 0.481115 -T 36.334825
n -t 8.000000 -s 6 -x 3.495799 -y 58.613713 -U 0.786016 -V -0.618207 -T 19.711884
n -t 8.000000 -s 8 -x 33.127458 -y 78.230489 -U -0.280770 -V -0.959775 -T 31.356254
n -t 8.000000 -s 12 -x 22.033612 -y 64.494818 -U 0.041844 -V -0.999124 -T 16.176706
n -t 8.000000 -s 16 -x 12.854365 -y 54.544486 -U 0.668169 -V -0.744010 -T 10.064091
n -t 8.000000 -s 17 -x 45.366241 -y 74.774524 -U -0.581082 -V -0.813845 -T 33.628817
n -t 9.000000 -s 4 -x 58.279543 -y 23.930955 -U -0.882758 -V 0.469827 -T 33.470400
n -t 9.000000 -s 6 -x 4.281815 -y 57.995506 -U 0.781630 -V -0.623743 -T 20.635745
n -t 9.000000 -s 8 -x 32.846689 -y 77.270714 -U -0.235028 -V -0.971988 -T 31.281621
n -t 9.000000 -s 12 -x 22.075456 -y 63.495694 -U 0.103855 -V -0.994592 -T 16.607140
n -t 9.000000 -s 13 -x 19.616220 -y 0.710204 -U 0.113162 -V 0.993577 -T 36.562165
n -t 9.000000 -s 16 -x 13.522534 -y 53.800477 -U 0.675207 -V -0.737628 -T 10.990554
n -t 9.000000 -s 17 -x 44.785159 -y 73.960679 -U -0.539321 -V -0.842100 -T 32.947125
n -t 10.000000 -s 4 -x 57.396784 -y 24.400783 -U -0.889493 -V 0.456949 -T 30.613056
n -t 10.000000 -s 6 -x 5.063445 -y 57.371764 -U 0.777681 -V -0.628659 -T 21.560724
n -t 10.000000 -s 8 -x 32.611660 -y 76.298726 -U -0.189952 -V -0.981793 -T 31.285220
n -t 10.000000 -s 12 -x 22.179311 -y 62.501102 -U 0.160089 -V -0.987103 -T 17.112157
n -t 10.000000 -s 13 -x 19.729382 -y 1.703780 -U 0.151919 -V 0.988393 -T 34.427994
n -t 10.000000 -s 16 -x 14.197742 -y 53.062849 -U 0.681012 -V -0.732272 -T 11.918180
n -t 10.000000 -s 17 -x 44.245838 -y 73.118579 -U -0.495875 -V -0.868394 -T 32.361443
n -t 10.000000 -s 18 -x 63.487120 -y 22.216710 -U -0.898449 -V 0.439078 -T 37.036775
n -t 11.000000 -s 4 -x 56.507291 -y 24.857732 -U -0.896964 -V 0.442103 -T 27.764194
n -t 11.000000 -s 6 -x 5.841126 -y 56.743105 -U 0.774116 -V -0.633043 -T 22.486633
n -t 11.000000 -s 8 -x 32.421709 -y 75.316932 -U -0.145829 -V -0.989310 -T 31.362783
n -t 11.000000 -s 12 -x 22.339400 -y 61.513999 -U 0.210735 -V -0.977543 -T 17.680459
n -t 11.000000 -s 13 -x 19.881300 -y 2.692173 -U 0.193736 -V 0.981054 -T 32.358501
n -t 11.000000 -s 16 -x 14.878754 -y 52.330576 -U 0.685855 -V -0.727738 -T 12.846666
n -t 11.000000 -s 17 -x 43.749963 -y 72.250185 -U -0.451057 -V -0.892495 -T 31.871141
n -t 11.000000 -s 18 -x 62.588671 -y 22.655788 -U -0.904863 -V 0.425702 -T 34.198955
n -t 12.000000 -s 1 -x 69.152330 -y 46.728590 -U -0.977754 -V -0.209754 -T 36.558098
n -t 12.000000 -s 4 -x 55.610327 -y 25.299834 -U -0.905297 -V 0.424779 -T 24.925642
n -t 12.000000 -s 6 -x 6.615242 -y 56.110062 -U 0.770888 -V -0.636971 -T 23.413317
n -t 12.000000 -s 8 -x 32.275880 -y 74.327622 -U -0.102908 -V -0.994691 -T 31.509848
n -t 12.000000 -s 10 -x 65.532130 -y 20.566120 -U -0.904560 -V 0.426346 -T 35.918665
n -t 12.000000 -s 12 -x 22.550136 -y 60.536456 -U 0.256138 -V -0.966640 -T 18.302206
n -t 12.000000 -s 13 -x 20.075036 -y 3.673227 -U 0.238783 -V 0.971073 -T 30.361284
n -t 12.000000 -s 16 -x 15.564608 -y 51.602838 -U 0.689937 -V -0.723869 -T 13.775800
n -t 12.000000 -s 17 -x 43.298906 -y 71.357690 -U -0.405216 -V -0.914221 -T 31.474852
n -t 12.000000 -s 18 -x 61.683808 -y 23.081490 -U -0.911861 -V 0.410498 -T 31.370745
n -t 13.000000 -s 1 -x 68.174576 -y 46.518836 -U -0.968486 -V -0.249070 -T 34.500950
n -t 13.000000 -s 4 -x 54.705030 -y 25.724613 -U -0.914638 -V 0.404273 -T 22.099840
n -t 13.000000 -s 6 -x 7.386130 -y 55.473091 -U 0.767957 -V -0.640502 -T 24.340652
n -t 13.000000 -s 8 -x 32.172972 -y 73.332931 -U -0.061394 -V -0.998114 -T 31.721856
n -t 13.000000 -s 10 -x 64.627570 -y 20.992466 -U -0.911244 -V 0.411866 -T 33.089772
n -t 13.000000 -s 12 -x 22.806274 -y 59.569816 -U 0.296725 -V -0.954963 -T 18.968964
n -t 13.000000 -s 13 -x 20.313820 -y 4.644300 -U 0.287179 -V 0.957877 -T 28.444846
n -t 13.000000 -s 16 -x 16.254545 -y 50.878968 -U 0.693410 -V -0.720544 -T 14.705428
n -t 13.000000 -s 17 -x 42.893690 -y 70.443469 -U -0.358724 -V -0.933444 -T 31.170494
n -t 13.000000 -s 18 -x 60.771946 -y 23.491988 -U -0.919518 -V 0.393049 -T 28.553977
n -t 14.000000 -s 1 -x 67.206090 -y 46.269766 -U -0.956687 -V -0.291120 -T 32.512665
n -t 14.000000 -s 4 -x 53.790391 -y 26.128886 -U -0.925156 -V 0.379586 -T 19.290126
n -t 14.000000 -s 6 -x 8.154087 -y 54.832589 -U 0.765288 -V -0.643688 -T 25.268537
n -t 14.000000 -s 8 -x 32.111578 -y 72.334818 -U -0.021445 -V -0.999770 -T 31.994242
n -t 14.000000 -s 10 -x 63.716325 -y 21.404331 -U -0.918530 -V 0.395352 -T 30.271701
n -t 14.000000 -s 12 -x 23.102999 -y 58.614853 -U 0.332956 -V -0.942942 -T 19.673589
n -t 14.000000 -s 13 -x 20.600999 -y 5.602177 -U 0.338953 -V 0.940803 -T 26.618625
n -t 14.000000 -s 16 -x 16.947955 -y 50.158425 -U 0.696388 -V -0.717665 -T 15.635438
n -t 14.000000 -s 17 -x 42.534966 -y 69.510025 -U -0.311963 -V -0.950094 -T 30.955322
n -t 14.000000 -s 18 -x 59.852429 -y 23.885037 -U -0.927911 -V 0.372802 -T 25.751017
n -t 15.000000 -s 1 -x 66.249404 -y 45.978646 -U -0.941872 -V -0.335971 -T 30.600813
n -t 15.000000 -s 4 -x 52.865235 -y 26.508472 -U -0.937029 -V 0.349252 -T 16.501217
n -t 15.000000 -s 6 -x 8.919374 -y 54.188900 -U 0.762852 -V -0.646573 -T 26.196890
n -t 15.000000 -s 8 -x 32.090133 -y 71.335048 -U 0.016822 -V -0.999858 -T 32.322508
n -t 15.000000 -s 10 -x 62.797796 -y 21.799684 -U -0.926486 -V 0.376330 -T 27.466573
n -t 15.000000 -s 12 -x 23.435956 -y 57.671911 -U 0.365289 -V -0.930894 -T 20.410074
n -t 15.000000 -s 13 -x 20.939952 -y 6.542980 -U 0.394007 -V 0.919108 -T 24.892956
n -t 15.000000 -s 16 -x 17.644343 -y 49.440759 -U 0.698962 -V -0.715159 -T 16.565748
n -t 15.000000 -s 17 -x 42.223003 -y 68.559931 -U -0.265311 -V -0.964163 -T 30.826008
n -t 15.000000 -s 18 -x 58.924518 -y 24.257840 -U -0.937120 -V 0.349007 -T 22.964978
n -t 16.000000 -s 1 -x 65.307531 -y 45.642676 -U -0.923493 -V -0.383615 -T 28.773729
n -t 16.000000 -s 4 -x 51.928206 -y 26.857725 -U -0.950398 -V 0.311037 -T 13.740023
n -t 16.000000 -s 6 -x 9.682226 -y 53.542327 -U 0.760623 -V -0.649194 -T 27.125641
n -t 16.000000 -s 8 -x 32.106955 -y 70.335189 -U 0.053333 -V -0.998577 -T 32.702289
n -t 16.000000 -s 10 -x 61.871310 -y 22.176014 -U -0.935184 -V 0.354163 -T 24.677144
n -t 16.000000 -s 12 -x 23.801245 -y 56.741017 -U 0.394159 -V -0.919042 -T 21.173398
n -t 16.000000 -s 13 -x 21.333958 -y 7.462088 -U 0.452060 -V 0.891988 -T 23.278945
n -t 16.000000 -s 16 -x 18.343305 -y 48.725600 -U 0.701201 -V -0.712964 -T 17.496295
n -t 16.000000 -s 17 -x 41.957692 -y 67.595768 -U -0.219124 -V -0.975697 -T 30.778736
n -t 16.000000 -s 18 -x 57.987398 -y 24.606847 -U -0.947207 -V 0.320623 -T 20.200057
n -t 17.000000 -s 1 -x 64.384038 -y 45.259061 -U -0.900940 -V -0.433944 -T 27.040489
n -t 17.000000 -s 4 -x 50.977808 -y 27.168761 -U -0.965236 -V 0.261378 -T 11.017143
n -t 17.000000 -s 6 -x 10.442849 -y 52.893133 -U 0.758579 -V -0.651581 -T 28.054734
n -t 17.000000 -s 8 -x 32.160288 -y 69.336613 -U 0.088047 -V -0.996116 -T 33.129400
n -t 17.000000 -s 10 -x 60.936126 -y 22.530177 -U -0.944683 -V 0.327985 -T 21.907070
n -t 17.000000 -s 12 -x 24.195404 -y 55.821974 -U 0.419968 -V -0.907539 -T 21.959371
n -t 17.000000 -s 13 -x 21.786018 -y 8.354075 -U 0.512593 -V 0.858632 -T 21.788228
n -t 17.000000 -s 16 -x 19.044506 -y 48.012637 -U 0.703161 -V -0.711031 -T 18.427032
n -t 17.000000 -s 17 -x 41.738569 -y 66.620071 -U -0.173728 -V -0.984794 -T 30.809305
n -t 17.000000 -s 18 -x 57.040191 -y 24.927470 -U -0.958181 -V 0.286164 -T 17.462059
n -t 18.000000 -s 1 -x 63.483098 -y 44.825117 -U -0.873567 -V -0.486705 -T 25.410812
n -t 18.000000 -s 4 -x 50.012572 -y 27.430140 -U -0.980942 -V 0.194303 -T 8.349768
n -t 18.000000 -s 6 -x 11.201428 -y 52.241552 -U 0.756700 -V -0.653762 -T 28.984122
n -t 18.000000 -s 8 -x 32.248335 -y 68.340496 -U 0.120956 -V -0.992658 -T 33.599869
n -t 18.000000 -s 10 -x 59.991443 -y 22.858162 -U -0.955007 -V 0.296585 -T 19.161314
n -t 18.000000 -s 12 -x 24.615372 -y 54.914436 -U 0.443079 -V -0.896483 -T 22.764506
n -t 18.000000 -s 13 -x 22.298611 -y 9.212707 -U 0.574799 -V 0.818294 -T 20.432564
n -t 18.000000 -s 16 -x 19.747666 -y 47.301606 -U 0.704886 -V -0.709320 -T 19.357922
n -t 18.000000 -s 17 -x 41.564840 -y 65.635277 -U -0.129412 -V -0.991591 -T 30.913242
n -t 18.000000 -s 18 -x 56.082010 -y 25.213633 -U -0.969913 -V 0.243450 -T 14.759271
n -t 19.000000 -s 1 -x 62.609532 -y 44.338412 -U -0.840722 -V -0.541468 -T 23.894882
n -t 19.000000 -s 4 -x 49.031630 -y 27.624442 -U -0.995066 -V 0.099215 -T 5.767779
n -t 19.000000 -s 6 -x 11.958129 -y 51.587790 -U 0.754970 -V -0.655759 -T 29.913764
n -t 19.000000 -s 8 -x 32.369291 -y 67.347838 -U 0.152076 -V -0.988369 -T 34.109963
n -t 19.000000 -s 10 -x 59.036437 -y 23.154746 -U -0.966086 -V 0.258221 -T 16.446809
n -t 19.000000 -s 12 -x 25.058450 -y 54.017953 -U 0.463814 -V -0.885933 -T 23.585895
n -t 19.000000 -s 13 -x 22.873410 -y 10.031002 -U 0.637552 -V 0.770408 -T 19.223242
n -t 19.000000 -s 16 -x 20.452553 -y 46.592285 -U 0.706413 -V -0.707800 -T 20.288937
n -t 19.000000 -s 17 -x 41.435428 -y 64.643687 -U -0.086417 -V -0.996259 -T 31.085912
n -t 19.000000 -s 18 -x 55.112097 -y 25.457084 -U -0.981943 -V 0.189178 -T 12.103966
n -t 20.000000 -s 1 -x 61.768810 -y 43.796945 -U -0.801805 -V -0.597586 -T 22.503051
n -t 20.000000 -s 4 -x 48.036564 -y 27.723658 -U -0.999054 -V -0.043487 -T 3.327713
n -t 20.000000 -s 6 -x 12.713099 -y 50.932031 -U 0.753373 -V -0.657593 -T 30.843627
n -t 20.000000 -s 8 -x 32.521368 -y 66.359470 -U 0.181444 -V -0.983401 -T 34.656200
n -t 20.000000 -s 10 -x 58.070351 -y 23.412968 -U -0.977632 -V 0.210325 -T 13.773555
n -t 20.000000 -s 12 -x 25.522264 -y 53.132020 -U 0.482458 -V -0.875919 -T 24.421117
n -t 20.000000 -s 13 -x 23.510962 -y 10.801409 -U 0.699419 -V 0.714712 -T 18.170322
n -t 20.000000 -s 16 -x 21.158965 -y 45.884485 -U 0.707770 -V -0.706443 -T 21.220055
n -t 20.000000 -s 17 -x 41.349011 -y 63.647428 -U -0.044938 -V -0.998990 -T 31.322614
n -t 20.000000 -s 18 -x 54.130154 -y 25.646261 -U -0.992993 -V 0.118170 -T 9.515126
n -t 20.000000 -s 1 -x 61.768810 -y 43.796945 -U 0.000000 -V 0.000000 -T 0.000000
n -t 20.000000 -s 6 -x 12.713099 -y 50.932031 -U 0.000000 -V 0.000000 -T 0.000000
n -t 20.000000 -s 8 -x 32.521368 -y 66.359470 -U 0.000000 -V 0.000000 -T 0.000000
n -t 20.000000 -s 10 -x 58.070351 -y 23.412968 -U 0.000000 -V 0.000000 -T 0.000000
n -t 20.000000 -s 12 -x 25.522264 -y 53.132020 -U 0.000000 -V 0.000000 -T 0.000000
n -t 20.000000 -s 13 -x 23.510962 -y 10.801409 -U 0.000000 -V 0.000000 -T 0.000000
n -t 20.000000 -s 16 -x 21.158965 -y 45.884485 -U 0.000000 -V 0.000000 -T 0.000000
n -t 20.000000 -s 17 -x 41.349011 -y 63.647428 -U 0.000000 -V 0.000000 -T 0.000000
n -t 20.000000 -s 18 -x 54.130154 -y 25.646261 -U 0.000000 -V 0.000000 -T 0.000000
n -t 21.000000 -s 1 -x 61.768810 -y 43.796945 -U 0.000000 -V 0.000000 -T 0.000000
n -t 21.000000 -s 6 -x 12.713099 -y 50.932031 -U 0.000000 -V 0.000000 -T 0.000000
n -t 21.000000 -s 8 -x 32.521368 -y 66.359470 -U 0.000000 -V 0.000000 -T 0.000000
n -t 21.000000 -s 10 -x 58.070351 -y 23.412968 -U 0.000000 -V 0.000000 -T 0.000000
n -t 21.000000 -s 12 -x 25.522264 -y 53.132020 -U 0.000000 -V 0.000000 -T 0.000000
n -t 21.000000 -s 13 -x 23.510962 -y 10.801409 -U 0.000000 -V 0.000000 -T 0.000000
n -t 21.000000 -s 16 -x 21.158965 -y 45.884485 -U 0.000000 -V 0.000000 -T 0.000000
n -t 21.000000 -s 17 -x 41.349011 -y 63.647428 -U 0.000000 -V 0.000000 -T 0.000000
n -t 21.000000 -s 18 -x 54.130154 -y 25.646261 -U 0.000000 -V 0.000000 -T 0.000000
n -t 22.000000 -s 1 -x 61.768810 -y 43.796945 -U 0.000000 -V 0.000000 -T 0.000000
n -t 22.000000 -s 6 -x 12.713099 -y 50.932031 -U 0.000000 -V 0.000000 -T 0.000000
n -t 22.000000 -s 8 -x 32.521368 -y 66.359470 -U 0.000000 -V 0.000000 -T 0.000000
n -t 22.000000 -s 10 -x 58.070351 -y 23.412968 -U 0.000000 -V 0.000000 -T 0.000000
n -t 22.000000 -s 12 -x 25.522264 -y 53.132020 -U 0.000000 -V 0.000000 -T 0.000000
n -t 22.000000 -s 13 -x 23.510962 -y 10.801409 -U 0.000000 -V 0.000000 -T 0.000000
n -t 22.000000 -s 16 -x 21.158965 -y 45.884485 -U 0.000000 -V 0.000000 -T 0.000000
n -t 22.000000 -s 17 -x 41.349011 -y 63.647428 -U 0.000000 -V 0.000000 -T 0.000000
n -t 22.000000 -s 18 -x 54.130154 -y 25.646261 -U 0.000000 -V 0.000000 -T 0.000000
n -t 23.000000 -s 1 -x 61.768810 -y 43.796945 -U 0.000000 -V 0.000000 -T 0.000000
n -t 23.000000 -s 6 -x 12.713099 -y 50.932031 -U 0.000000 -V 0.000000 -T 0.000000
n -t 23.000000 -s 8 -x 32.521368 -y 66.359470 -U 0.000000 -V 0.000000 -T 0.000000
n -t 23.000000 -s 10 -x 58.070351 -y 23.412968 -U 0.000000 -V 0.000000 -T 0.000000
n -t 23.000000 -s 12 -x 25.522264 -y 53.132020 -U 0.000000 -V 0.000000 -T 0.000000
n -t 23.000000 -s 13 -x 23.510962 -y 10.801409 -U 0.000000 -V 0.000000 -T 0.000000
n -t 23.000000 -s 16 -x 21.158965 -y 45.884485 -U 0.000000 -V 0.000000 -T 0.000000
n -t 23.000000 -s 17 -x 41.349011 -y 63.647428 -U 0.000000 -V 0.000000 -T 0.000000
n -t 23.000000 -s 18 -x 54.130154 -y 25.646261 -U 0.000000 -V 0.000000 -T 0.000000
n -t 24.000000 -s 1 -x 61.768810 -y 43.796945 -U 0.000000 -V 0.000000 -T 0.000000
n -t 24.000000 -s 6 -x 12.713099 -y 50.932031 -U 0.000000 -V 0.000000 -T 0.000000
n -t 24.000000 -s 8 -x 32.521368 -y 66.359470 -U 0.000000 -V 0.000000 -T 0.000000
n -t 24.000000 -s 10 -x 58.070351 -y 23.412968 -U 0.000000 -V 0.000000 -T 0.000000
n -t 24.000000 -s 12 -x 25.522264 -y 53.132020 -U 0.000000 -V 0.000000 -T 0.000000
n -t 24.000000 -s 13 -x 23.510962 -y 10.801409 -U 0.000000 -V 0.000000 -T 0.000000
n -t 24.000000 -s 16 -x 21.158965 -y 45.884485 -U 0.000000 -V 0.000000 -T 0.000000
n -t 24.000000 -s 17 -x 41.349011 -y 63.647428 -U 0.000000 -V 0.000000 -T 0.000000
n -t 24.000000 -s 18 -x 54.130154 -y 25.646261 -U 0.000000 -V 0.000000 -T 0.000000
n -t 25.000000 -s 1 -x 61.768810 -y 43.796945 -U 0.000000 -V 0.000000 -T 0.000000
n -t 25.000000 -s 6 -x 12.713099 -y 50.932031 -U 0.000000 -V 0.000000 -T 0.000000
n -t 25.000000 -s 8 -x 32.521368 -y 66.359470 -U 0.000000 -V 0.000000 -T 0.000000
n -t 25.000000 -s 10 -x 58.070351 -y 23.412968 -U 0.000000 -V 0.000000 -T 0.000000
n -t 25.000000 -s 12 -x 25.522264 -y 53.132020 -U 0.000000 -V 0.000000 -T 0.000000
n -t 25.000000 -s 13 -x 23.510962 -y 10.801409 -U 0.000000 -V 0.000000 -T 0.000000
n -t 25.000000 -s 16 -x 21.158965 -y 45.884485 -U 0.000000 -V 0.000000 -T 0.000000
n -t 25.000000 -s 17 -x 41.349011 -y 63.647428 -U 0.000000 -V 0.000000 -T 0.000000
n -t 25.000000 -s 18 -x 54.130154 -y 25.646261 -U 0.000000 -V 0.000000 -T 0.000000
n -t 26.000000 -s 1 -x 61.768810 -y 43.796945 -U 0.000000 -V 0.000000 -T 0.000000
n -t 26.000000 -s 4 -x 44.712000 -y 27.578945 -U 0.000000 -V 0.000000 -T 0.000000
n -t 26.000000 -s 6 -x 12.713099 -y 50.932031 -U 0.000000 -V 0.000000 -T 0.000000
n -t 26.000000 -s 8 -x 32.521368 -y 66.359470 -U 0.000000 -V 0.000000 -T 0.000000
n -t 26.000000 -s 10 -x 58.070351 -y 23.412968 -U 0.000000 -V 0.000000 -T 0.000000
n -t 26.000000 -s 12 -x 25.522264 -y 53.132020 -U 0.000000 -V 0.000000 -T 0.000000
n -t 26.000000 -s 13 -x 23.510962 -y 10.801409 -U 0.000000 -V 0.000000 -T 0.000000
n -t 26.000000 -s 16 -x 21.158965 -y 45.884485 -U 0.000000 -V 0.000000 -T 0.000000
n -t 26.000000 -s 17 -x 41.349011 -y 63.647428 -U 0.000000 -V 0.000000 -T 0.000000
n -t 27.000000 -s 1 -x 61.768810 -y 43.796945 -U 0.000000 -V 0.000000 -T 0.000000
n -t 27.000000 -s 4 -x 44.712000 -y 27.578945 -U 0.000000 -V 0.000000 -T 0.000000
n -t 27.000000 -s 6 -x 12.713099 -y 50.932031 -U 0.000000 -V 0.000000 -T 0.000000
n -t 27.000000 -s 8 -x 32.521368 -y 66.359470 -U 0.000000 -V 0.000000 -T 0.000000
n -t 27.000000 -s 10 -x 58.070351 -y 23.412968 -U 0.000000 -V 0.000000 -T 0.000000
n -t 27.000000 -s 12 -x 25.522264 -y 53.132020 -U 0.000000 -V 0.000000 -T 0.000000
n -t 27.000000 -s 13 -x 23.510962 -y 10.801409 -U 0.000000 -V 0.000000 -T 0.000000
n -t 27.000000 -s 16 -x 21.158965 -y 45.884485 -U 0.000000 -V 0.000000 -T 0.000000
n -t 27.000000 -s 17 -x 41.349011 -y 63.647428 -U 0.000000 -V 0.000000 -T 0.000000
n -t 28.000000 -s 1 -x 61.768810 -y 43.796945 -U 0.000000 -V 0.000000 -T 0.000000
n -t 28.000000 -s 4 -x 44.712000 -y 27.578945 -U 0.000000 -V 0.000000 -T 0.000000
n -t 28.000000 -s 6 -x 12.713099 -y 50.932031 -U 0.000000 -V 0.000000 -T 0.000000
n -t 28.000000 -s 8 -x 32.521368 -y 66.359470 -U 0.000000 -V 0.000000 -T 0.000000
n -t 28.000000 -s 10 -x 58.070351 -y 23.412968 -U 0.000000 -V 0.000000 -T 0.000000
n -t 28.000000 -s 12 -x 25.522264 -y 53.132020 -U 0.000000 -V 0.000000 -T 0.000000
n -t 28.000000 -s 13 -x 23.510962 -y 10.801409 -U 0.000000 -V 0.000000 -T 0.000000
n -t 28.000000 -s 16 -x 21.158965 -y 45.884485 -U 0.000000 -V 0.000000 -T 0.000000
n -t 28.000000 -s 17 -x 41.349011 -y 63.647428 -U 0.000000 -V 0.000000 -T 0.000000
n -t 29.000000 -s 1 -x 61.768810 -y 43.796945 -U 0.000000 -V 0.000000 -T 0.000000
n -t 29.000000 -s 4 -x 44.712000 -y 27.578945 -U 0.000000 -V 0.000000 -T 0.000000
n -t 29.000000 -s 6 -x 12.713099 -y 50.932031 -U 0.000000 -V 0.000000 -T 0.000000
n -t 29.000000 -s 8 -x 32.521368 -y 66.359470 -U 0.000000 -V 0.000000 -T 0.000000
n -t 29.000000 -s 12 -x 25.522264 -y 53.132020 -U 0.000000 -V 0.000000 -T 0.000000
n -t 29.000000 -s 13 -x 23.510962 -y 10.801409 -U 0.000000 -V 0.000000 -T 0.000000
n -t 29.000000 -s 16 -x 21.158965 -y 45.884485 -U 0.000000 -V 0.000000 -T 0.000000
n -t 29.000000 -s 17 -x 41.349011 -y 63.647428 -U 0.000000 -V 0.000000 -T 0.000000
n -t 29.000000 -s 18 -x 54.130154 -y 25.646261 -U 0.000000 -V 0.000000 -T 0.000000
n -t 31.000000 -s 1 -x 61.768810 -y 43.796945 -U -0.209378 -V -0.977835 -T 26.783818
n -t 31.000000 -s 4 -x 44.712000 -y 27.578945 -U 0.573428 -V -0.819256 -T 13.140018
n -t 31.000000 -s 10 -x 58.070351 -y 23.412968 -U -0.266425 -V -0.963856 -T 6.096421
n -t 31.000000 -s 13 -x 23.510962 -y 10.801409 -U 0.998167 -V 0.060523 -T 26.661063
n -t 31.000000 -s 18 -x 54.130154 -y 25.646261 -U 0.075878 -V -0.997117 -T 7.966020
n -t 32.000000 -s 1 -x 61.559432 -y 42.819110 -U -0.158494 -V -0.987360 -T 26.835153
n -t 32.000000 -s 4 -x 45.285427 -y 26.759688 -U 0.589809 -V -0.807542 -T 14.037180
n -t 32.000000 -s 10 -x 57.803926 -y 22.449112 -U -0.115840 -V -0.993268 -T 6.137734
n -t 32.000000 -s 13 -x 24.509129 -y 10.861932 -U 0.999866 -V 0.016384 -T 27.008903
n -t 32.000000 -s 18 -x 54.206032 -y 24.649144 -U 0.171423 -V -0.985198 -T 8.462058
n -t 33.000000 -s 1 -x 61.400938 -y 41.831750 -U -0.109094 -V -0.994031 -T 26.967454
n -t 33.000000 -s 4 -x 45.875237 -y 25.952146 -U 0.603699 -V -0.797212 -T 14.940804
n -t 33.000000 -s 10 -x 57.688086 -y 21.455844 -U 0.019767 -V -0.999805 -T 6.402977
n -t 33.000000 -s 13 -x 25.508995 -y 10.878316 -U 0.999677 -V -0.025396 -T 27.414947
n -t 33.000000 -s 18 -x 54.377454 -y 23.663947 -U 0.251483 -V -0.967862 -T 9.060738
n -t 34.000000 -s 1 -x 61.291844 -y 40.837719 -U -0.061496 -V -0.998107 -T 27.174782
n -t 34.000000 -s 4 -x 46.478936 -y 25.154934 -U 0.615570 -V -0.788082 -T 15.849469
n -t 34.000000 -s 10 -x 57.707853 -y 20.456040 -U 0.135572 -V -0.990767 -T 6.841535
n -t 34.000000 -s 13 -x 26.508672 -y 10.852919 -U 0.997900 -V -0.064766 -T 27.873583
n -t 34.000000 -s 18 -x 54.628937 -y 22.696085 -U 0.317869 -V -0.948135 -T 9.736570
n -t 35.000000 -s 1 -x 61.230348 -y 39.839611 -U -0.015943 -V -0.999873 -T 27.451166
n -t 35.000000 -s 4 -x 47.094506 -y 24.366851 -U 0.625789 -V -0.779993 -T 16.762106
n -t 35.000000 -s 10 -x 57.843425 -y 19.465272 -U 0.231248 -V -0.972895 -T 7.409050
n -t 35.000000 -s 13 -x 27.506573 -y 10.788153 -U 0.994812 -V -0.101726 -T 28.379574
n -t 35.000000 -s 18 -x 54.946806 -y 21.747950 -U 0.372729 -V -0.927940 -T 10.470158
n -t 36.000000 -s 1 -x 61.214405 -y 38.839738 -U 0.027396 -V -0.999625 -T 27.790739
n -t 36.000000 -s 4 -x 47.720294 -y 23.586859 -U 0.634646 -V -0.772803 -T 17.677905
n -t 36.000000 -s 10 -x 58.074673 -y 18.492377 -U 0.308945 -V -0.951080 -T 8.070481
n -t 36.000000 -s 13 -x 28.501385 -y 10.686427 -U 0.990665 -V -0.136321 -T 28.928082
n -t 36.000000 -s 18 -x 55.319535 -y 20.820010 -U 0.418119 -V -0.908392 -T 11.247058
n -t 37.000000 -s 1 -x 61.241801 -y 37.840114 -U 0.068419 -V -0.997657 -T 28.187839
n -t 37.000000 -s 4 -x 48.354940 -y 22.814056 -U 0.642371 -V -0.766394 -T 18.596243
n -t 37.000000 -s 10 -x 58.383618 -y 17.541297 -U 0.371664 -V -0.928367 -T 8.799765
n -t 37.000000 -s 13 -x 29.492050 -y 10.550106 -U 0.985680 -V -0.168626 -T 29.514683
n -t 37.000000 -s 18 -x 55.737654 -y 19.911618 -U 0.455825 -V -0.890069 -T 12.056617
n -t 38.000000 -s 1 -x 61.310221 -y 36.842457 -U 0.107085 -V -0.994250 -T 28.637091
n -t 38.000000 -s 4 -x 48.997312 -y 22.047662 -U 0.649148 -V -0.760662 -T 19.516640
n -t 38.000000 -s 10 -x 58.755282 -y 16.612930 -U 0.422342 -V -0.906437 -T 9.578128
n -t 38.000000 -s 13 -x 30.477730 -y 10.381480 -U 0.980053 -V -0.198737 -T 30.135359
n -t 38.000000 -s 18 -x 56.193479 -y 19.021548 -U 0.487327 -V -0.873220 -T 12.890992
n -t 39.000000 -s 1 -x 61.417305 -y 35.848207 -U 0.143398 -V -0.989665 -T 29.133455
n -t 39.000000 -s 4 -x 49.646460 -y 21.287000 -U 0.655125 -V -0.755521 -T 20.438716
n -t 39.000000 -s 10 -x 59.177624 -y 15.706493 -U 0.463504 -V -0.886095 -T 10.392231
n -t 39.000000 -s 13 -x 31.457783 -y 10.182743 -U 0.973949 -V -0.226768 -T 30.786486
n -t 39.000000 -s 18 -x 56.680806 -y 18.148329 -U 0.513817 -V -0.857900 -T 13.744389
n -t 40.000000 -s 1 -x 61.560704 -y 34.858542 -U 0.177405 -V -0.984138 -T 29.672260
n -t 40.000000 -s 4 -x 50.301584 -y 20.531479 -U 0.660422 -V -0.750895 -T 21.362176
n -t 40.000000 -s 10 -x 59.641128 -y 14.820399 -U 0.497185 -V -0.867645 -T 11.232616
n -t 40.000000 -s 13 -x 32.431731 -y 9.955975 -U 0.967508 -V -0.252839 -T 31.464807
n -t 40.000000 -s 18 -x 57.194623 -y 17.290429 -U 0.536245 -V -0.844062 -T 14.612505
n -t 41.000000 -s 1 -x 61.738109 -y 33.874404 -U 0.185397 -V -0.982664 -T 29.051236
n -t 41.000000 -s 4 -x 50.962006 -y 19.780584 -U 0.661632 -V -0.749828 -T 20.828700
n -t 41.000000 -s 10 -x 60.138313 -y 13.952754 -U 0.504579 -V -0.863365 -T 10.681964
n -t 41.000000 -s 13 -x 33.399240 -y 9.703136 -U 0.965893 -V -0.258941 -T 30.875474
n -t 41.000000 -s 18 -x 57.730868 -y 16.446367 -U 0.541255 -V -0.840859 -T 14.067262
n -t 42.000000 -s 1 -x 61.923506 -y 32.891741 -U 0.185397 -V -0.982664 -T 28.051236
n -t 42.000000 -s 4 -x 51.623638 -y 19.030756 -U 0.661632 -V -0.749828 -T 19.828700
n -t 42.000000 -s 10 -x 60.642892 -y 13.089389 -U 0.504579 -V -0.863365 -T 9.681964
n -t 42.000000 -s 13 -x 34.365133 -y 9.444195 -U 0.965893 -V -0.258941 -T 29.875474
n -t 42.000000 -s 18 -x 58.272123 -y 15.605508 -U 0.541255 -V -0.840859 -T 13.067262
n -t 43.000000 -s 1 -x 62.108903 -y 31.909077 -U 0.185397 -V -0.982664 -T 27.051236
n -t 43.000000 -s 4 -x 52.285271 -y 18.280927 -U 0.661632 -V -0.749828 -T 18.828700
n -t 43.000000 -s 10 -x 61.147472 -y 12.226024 -U 0.504579 -V -0.863365 -T 8.681964
n -t 43.000000 -s 13 -x 35.331026 -y 9.185254 -U 0.965893 -V -0.258941 -T 28.875474
n -t 43.000000 -s 18 -x 58.813378 -y 14.764649 -U 0.541255 -V -0.840859 -T 12.067262
n -t 44.000000 -s 1 -x 62.294300 -y 30.926413 -U 0.185397 -V -0.982664 -T 26.051236
n -t 44.000000 -s 4 -x 52.946903 -y 17.531099 -U 0.661632 -V -0.749828 -T 17.828700
n -t 44.000000 -s 10 -x 61.652051 -y 11.362658 -U 0.504579 -V -0.863365 -T 7.681964
n -t 44.000000 -s 13 -x 36.296919 -y 8.926312 -U 0.965893 -V -0.258941 -T 27.875474
n -t 44.000000 -s 18 -x 59.354632 -y 13.923790 -U 0.541255 -V -0.840859 -T 11.067262
n -t 45.000000 -s 1 -x 62.479697 -y 29.943749 -U 0.185397 -V -0.982664 -T 25.051236
n -t 45.000000 -s 4 -x 53.608535 -y 16.781271 -U 0.661632 -V -0.749828 -T 16.828700
n -t 45.000000 -s 10 -x 62.156631 -y 10.499293 -U 0.504579 -V -0.863365 -T 6.681964
n -t 45.000000 -s 13 -x 37.262812 -y 8.667371 -U 0.965893 -V -0.258941 -T 26.875474
n -t 45.000000 -s 18 -x 59.895887 -y 13.082931 -U 0.541255 -V -0.840859 -T 10.067262
n -t 46.000000 -s 1 -x 62.665094 -y 28.961086 -U 0.185397 -V -0.982664 -T 24.051236
n -t 46.000000 -s 4 -x 54.270168 -y 16.031442 -U 0.661632 -V -0.749828 -T 15.828700
n -t 46.000000 -s 10 -x 62.661210 -y 9.635928 -U 0.504579 -V -0.863365 -T 5.681964
n -t 46.000000 -s 13 -x 38.228705 -y 8.408429 -U 0.965893 -V -0.258941 -T 25.875474
n -t 46.000000 -s 18 -x 60.437141 -y 12.242073 -U 0.541255 -V -0.840859 -T 9.067262
n -t 47.000000 -s 1 -x 62.850492 -y 27.978422 -U 0.185397 -V -0.982664 -T 23.051236
n -t 47.000000 -s 4 -x 54.931800 -y 15.281614 -U 0.661632 -V -0.749828 -T 14.828700
n -t 47.000000 -s 10 -x 63.165790 -y 8.772563 -U 0.504579 -V -0.863365 -T 4.681964
n -t 47.000000 -s 13 -x 39.194598 -y 8.149488 -U 0.965893 -V -0.258941 -T 24.875474
n -t 47.000000 -s 18 -x 60.978396 -y 11.401214 -U 0.541255 -V -0.840859 -T 8.067262
n -t 47.000000 -s 1 -x 62.850492 -y 27.978422 -U 0.000000 -V 0.000000 -T 0.000000
n -t 47.000000 -s 4 -x 54.931800 -y 15.281614 -U 0.000000 -V 0.000000 -T 0.000000
n -t 47.000000 -s 13 -x 39.194598 -y 8.149488 -U 0.000000 -V 0.000000 -T 0.000000
n -t 47.000000 -s 18 -x 60.978396 -y 11.401214 -U 0.000000 -V 0.000000 -T 0.000000
n -t 48.000000 -s 1 -x 62.850492 -y 27.978422 -U 0.000000 -V 0.000000 -T 0.000000