n -t * -s 0  -x 29.284300000000002 -y 37.558709999999998 -Z 0 -z 1  -v circle -c black
n -t * -s 1  -x 51.022629999999999 -y 66.823520000000002 -Z 0 -z 1  -v circle -c black
n -t * -s 2  -x 6.0729259999999998 -y 68.80735 -Z 0 -z 1  -v circle -c black
n -t * -s 3  -x 72.283600000000007 -y 4.831366 -Z 0 -z 1  -v circle -c black
n -t * -s 4  -x 10.719900000000001 -y 8.250508 -Z 0 -z 1  -v circle -c black
n -t * -s 5  -x 16.51972 -y 13.323359999999999 -Z 0 -z 1  -v circle -c black
n -t * -s 6  -x 87.156149999999997 -y 43.362310000000001 -Z 0 -z 1  -v circle -c black
n -t * -s 7  -x 20.29682 -y 54.739570000000001 -Z 0 -z 1  -v circle -c black
n -t * -s 8  -x 15.49874 -y 0.1340963 -Z 0 -z 1  -v circle -c black
n -t * -s 9  -x 20.638190000000002 -y 23.315010000000001 -Z 0 -z 1  -v circle -c black
n -t * -s 10  -x 71.081090000000003 -y 58.769970000000001 -Z 0 -z 2  -v circle -c black
n -t * -s 11  -x 84.201790000000003 -y 74.340249999999997 -Z 0 -z 2  -v circle -c black
n -t * -s 12  -x 74.108609999999999 -y 2.7598039999999999 -Z 0 -z 2  -v circle -c black
n -t * -s 13  -x 10.753909999999999 -y 27.358930000000001 -Z 0 -z 2  -v circle -c black
n -t * -s 14  -x 52.413820000000001 -y 32.822609999999997 -Z 0 -z 2  -v circle -c black
n -t * -s 15  -x 22.706679999999999 -y 28.268149999999999 -Z 0 -z 2  -v circle -c black
V -t * -v 1.0a5 -a 0
W -t * -x 100 -y 100
A -t * -n 1 -p 0 -o 0x7fffffff -c 30 -a 1
A -t * -h 1 -m 1073741823 -s 0
n -t 0 -s 10 -S COLOR -c red -o black -i red -I black
n -t 0 -s 11 -S COLOR -c red -o black -i red -I black
n -t 0 -s 12 -S COLOR -c red -o black -i red -I black
n -t 0 -s 13 -S COLOR -c red -o black -i red -I black
n -t 0 -s 14 -S COLOR -c red -o black -i red -I black
n -t 0 -s 15 -S COLOR -c red -o black -i red -I black
n -t 0.000000 -s 10 -x 71.081090 -y 58.769970 -U -1.173323 -V -0.596781 -T 24.493066
n -t 0.000000 -s 11 -x 84.201790 -y 74.340250 -U -1.219578 -V -0.642715 -T 67.806684
n -t 0.000000 -s 12 -x 74.108610 -y 2.759804 -U -1.513851 -V 1.828021 -T 43.407378
n -t 0.000000 -s 13 -x 10.753910 -y 27.358930 -U 1.637460 -V -1.491768 -T 12.085786
n -t 0.000000 -s 14 -x 52.413820 -y 32.822610 -U -2.197704 -V 0.177041 -T 23.672158
n -t 0.000000 -s 15 -x 22.706680 -y 28.268150 -U 2.676343 -V -0.487297 -T 23.350036
n -t 0.000000 -s 3 -x 72.283600 -y 4.831366 -U 0.661043 -V -0.750348 -T 2.760803
n -t 0.000000 -s 9 -x 20.638190 -y 23.315010 -U 0.385358 -V 0.922767 -T 5.367704
n -t 0.000000 -s 0 -x 29.284300 -y 37.558710 -U -0.577831 -V -0.816157 -T 11.383303
n -t 0.000000 -s 5 -x 16.519720 -y 13.323360 -U -0.379987 -V 0.924992 -T 15.173720
n -t 0.000000 -s 4 -x 10.719900 -y 8.250508 -U 0.001780 -V 0.999998 -T 19.108452
n -t 0.000000 -s 1 -x 51.022630 -y 66.823520 -U 0.927995 -V -0.372593 -T 21.614844
n -t 0.000000 -s 6 -x 87.156150 -y 43.362310 -U -0.721934 -V 0.691961 -T 22.266646
n -t 0.000000 -s 7 -x 20.296820 -y 54.739570 -U 0.090661 -V -0.995882 -T 26.580886
n -t 0.000000 -s 8 -x 15.498740 -y 0.134096 -U -0.171695 -V 0.985150 -T 27.635213
n -t 0.000000 -s 2 -x 6.072926 -y 68.807350 -U 0.112222 -V -0.993683 -T 41.711906
n -t 0.000000 -s 0 -x 29.284300 -y 37.558710 -U 0.000000 -V 0.000000 -T 0.000000
n -t 0.000000 -s 7 -x 20.296820 -y 54.739570 -U 0.000000 -V 0.000000 -T 0.000000
n -t 1.000000 -s 1 -x 51.950625 -y 66.450927 -U 0.000000 -V 0.000000 -T 0.000000
n -t 1.000000 -s 6 -x 86.434216 -y 44.054271 -U 0.000000 -V 0.000000 -T 0.000000
n -t 1.000000 -s 3 -x 72.944643 -y 4.081018 -U 0.000000 -V 0.000000 -T 0.000000
n -t 1.000000 -s 5 -x 16.139733 -y 14.248352 -U 0.000000 -V 0.000000 -T 0.000000
n -t 1.000000 -s 4 -x 10.721680 -y 9.250506 -U 0.000000 -V 0.000000 -T 0.000000
n -t 1.000000 -s 8 -x 15.327045 -y 1.119246 -U 0.000000 -V 0.000000 -T 0.000000
n -t 1.000000 -s 2 -x 6.185148 -y 67.813667 -U 0.000000 -V 0.000000 -T 0.000000
n -t 1.000000 -s 9 -x 21.023548 -y 24.237777 -U 0.000000 -V 0.000000 -T 0.000000
n -t 1.000000 -s 0 -x 29.284300 -y 37.558710 -U 0.000000 -V 0.000000 -T 0.000000
n -t 1.000000 -s 7 -x 20.296820 -y 54.739570 -U 0.000000 -V 0.000000 -T 0.000000
n -t 1.000000 -s 3 -x 72.944643 -y 4.081018 -U -0.515494 -V 0.856893 -T 0.359660
n -t 1.000000 -s 9 -x 21.023548 -y 24.237777 -U 0.749289 -V 0.662243 -T 5.430062
n -t 1.000000 -s 0 -x 29.284300 -y 37.558710 -U -0.395853 -V -0.918314 -T 10.589963
n -t 1.000000 -s 5 -x 16.139733 -y 14.248352 -U -0.307030 -V 0.951700 -T 12.208480
n -t 1.000000 -s 4 -x 10.721680 -y 9.250506 -U 0.099979 -V 0.994990 -T 16.700333
n -t 1.000000 -s 1 -x 51.950625 -y 66.450927 -U 0.908155 -V -0.418634 -T 19.773211
n -t 1.000000 -s 6 -x 86.434216 -y 44.054271 -U -0.760315 -V 0.649554 -T 21.736314
n -t 1.000000 -s 8 -x 15.327045 -y 1.119246 -U -0.117797 -V 0.993038 -T 24.921427
n -t 1.000000 -s 7 -x 20.296820 -y 54.739570 -U 0.175465 -V -0.984486 -T 27.329774
n -t 1.000000 -s 0 -x 29.284300 -y 37.558710 -U 0.000000 -V 0.000000 -T 0.000000
n -t 1.000000 -s 7 -x 20.296820 -y 54.739570 -U 0.000000 -V 0.000000 -T 0.000000
n -t 2.000000 -s 1 -x 52.858780 -y 66.032293 -U 0.000000 -V 0.000000 -T 0.000000
n -t 2.000000 -s 6 -x 85.673900 -y 44.703826 -U 0.000000 -V 0.000000 -T 0.000000
n -t 2.000000 -s 3 -x 72.759241 -y 4.389208 -U 0.000000 -V 0.000000 -T 0.000000
n -t 2.000000 -s 5 -x 15.832704 -y 15.200052 -U 0.000000 -V 0.000000 -T 0.000000
n -t 2.000000 -s 4 -x 10.821659 -y 10.245496 -U 0.000000 -V 0.000000 -T 0.000000
n -t 2.000000 -s 8 -x 15.209248 -y 2.112284 -U 0.000000 -V 0.000000 -T 0.000000
n -t 2.000000 -s 9 -x 21.772837 -y 24.900020 -U 0.000000 -V 0.000000 -T 0.000000
n -t 2.000000 -s 0 -x 29.284300 -y 37.558710 -U 0.000000 -V 0.000000 -T 0.000000
n -t 2.000000 -s 7 -x 20.296820 -y 54.739570 -U 0.000000 -V 0.000000 -T 0.000000
n -t 2.000000 -s 3 -x 72.759241 -y 4.389208 -U -0.637819 -V 0.770186 -T 1.872140
n -t 2.000000 -s 9 -x 21.772837 -y 24.900020 -U 0.905209 -V 0.424967 -T 5.999087
n -t 2.000000 -s 5 -x 15.832704 -y 15.200052 -U -0.192907 -V 0.981217 -T 9.350982
n -t 2.000000 -s 0 -x 29.284300 -y 37.558710 -U -0.201626 -V -0.979463 -T 10.321251
n -t 2.000000 -s 4 -x 10.821659 -y 10.245496 -U 0.221347 -V 0.975195 -T 14.489306
n -t 2.000000 -s 1 -x 52.858780 -y 66.032293 -U 0.882610 -V -0.470106 -T 17.987180
n -t 2.000000 -s 6 -x 85.673900 -y 44.703826 -U -0.796194 -V 0.605041 -T 21.275540
n -t 2.000000 -s 8 -x 15.209248 -y 2.112284 -U -0.052947 -V 0.998597 -T 22.294382
n -t 2.000000 -s 7 -x 20.296820 -y 54.739570 -U 0.245340 -V -0.969437 -T 28.150500
n -t 2.000000 -s 4 -x 10.821659 -y 10.245496 -U 0.000000 -V 0.000000 -T 0.000000
n -t 2.000000 -s 8 -x 15.209248 -y 2.112284 -U 0.000000 -V 0.000000 -T 0.000000
n -t 2.000000 -s 0 -x 29.284300 -y 37.558710 -U 0.000000 -V 0.000000 -T 0.000000
n -t 2.000000 -s 7 -x 20.296820 -y 54.739570 -U 0.000000 -V 0.000000 -T 0.000000
n -t 3.000000 -s 1 -x 53.741390 -y 65.562186 -U 0.000000 -V 0.000000 -T 0.000000
n -t 3.000000 -s 6 -x 84.877706 -y 45.308867 -U 0.000000 -V 0.000000 -T 0.000000
n -t 3.000000 -s 3 -x 72.121422 -y 5.159394 -U 0.000000 -V 0.000000 -T 0.000000
n -t 3.000000 -s 5 -x 15.639796 -y 16.181269 -U 0.000000 -V 0.000000 -T 0.000000
n -t 3.000000 -s 4 -x 10.821659 -y 10.245496 -U 0.000000 -V 0.000000 -T 0.000000
n -t 3.000000 -s 8 -x 15.209248 -y 2.112284 -U 0.000000 -V 0.000000 -T 0.000000
n -t 3.000000 -s 9 -x 22.678046 -y 25.324987 -U 0.000000 -V 0.000000 -T 0.000000
n -t 3.000000 -s 0 -x 29.284300 -y 37.558710 -U 0.000000 -V 0.000000 -T 0.000000
n -t 3.000000 -s 7 -x 20.296820 -y 54.739570 -U 0.000000 -V 0.000000 -T 0.000000
n -t 3.000000 -s 3 -x 72.121422 -y 5.159394 -U -0.637819 -V 0.770186 -T 1.631362
n -t 3.000000 -s 9 -x 22.678046 -y 25.324987 -U 0.939134 -V 0.343550 -T 5.730085
n -t 3.000000 -s 5 -x 15.639796 -y 16.181269 -U -0.192907 -V 0.981217 -T 8.350982
n -t 3.000000 -s 0 -x 29.284300 -y 37.558710 -U -0.118489 -V -0.992955 -T 10.337981
n -t 3.000000 -s 4 -x 10.821659 -y 10.245496 -U 0.221347 -V 0.975195 -T 14.489306
n -t 3.000000 -s 1 -x 53.741390 -y 65.562186 -U 0.849508 -V -0.527576 -T 16.267921
n -t 3.000000 -s 6 -x 84.877706 -y 45.308867 -U -0.829247 -V 0.558883 -T 20.882309
n -t 3.000000 -s 8 -x 15.209248 -y 2.112284 -U -0.052947 -V 0.998597 -T 22.294382
n -t 3.000000 -s 7 -x 20.296820 -y 54.739570 -U 0.272154 -V -0.962254 -T 28.522637
n -t 3.000000 -s 4 -x 10.821659 -y 10.245496 -U 0.000000 -V 0.000000 -T 0.000000
n -t 3.000000 -s 8 -x 15.209248 -y 2.112284 -U 0.000000 -V 0.000000 -T 0.000000
n -t 3.000000 -s 0 -x 29.284300 -y 37.558710 -U 0.000000 -V 0.000000 -T 0.000000
n -t 3.000000 -s 7 -x 20.296820 -y 54.739570 -U 0.000000 -V 0.000000 -T 0.000000
n -t 4.000000 -s 1 -x 54.590898 -y 65.034611 -U 0.000000 -V 0.000000 -T 0.000000
n -t 4.000000 -s 6 -x 84.048460 -y 45.867750 -U 0.000000 -V 0.000000 -T 0.000000
n -t 4.000000 -s 3 -x 71.483602 -y 5.929580 -U 0.000000 -V 0.000000 -T 0.000000
n -t 4.000000 -s 5 -x 15.446889 -y 17.162486 -U 0.000000 -V 0.000000 -T 0.000000
n -t 4.000000 -s 4 -x 10.821659 -y 10.245496 -U 0.000000 -V 0.000000 -T 0.000000
n -t 4.000000 -s 8 -x 15.209248 -y 2.112284 -U 0.000000 -V 0.000000 -T 0.000000
n -t 4.000000 -s 9 -x 23.617181 -y 25.668537 -U 0.000000 -V 0.000000 -T 0.000000
n -t 4.000000 -s 0 -x 29.284300 -y 37.558710 -U 0.000000 -V 0.000000 -T 0.000000
n -t 4.000000 -s 7 -x 20.296820 -y 54.739570 -U 0.000000 -V 0.000000 -T 0.000000
n -t 4.000000 -s 3 -x 71.483602 -y 5.929580 -U -0.637819 -V 0.770186 -T 3.004842
n -t 4.000000 -s 5 -x 15.446889 -y 17.162486 -U 0.038321 -V 0.999265 -T 5.725346
n -t 4.000000 -s 9 -x 23.617181 -y 25.668537 -U 0.987467 -V 0.157823 -T 7.208874
n -t 4.000000 -s 0 -x 29.284300 -y 37.558710 -U 0.133771 -V -0.991012 -T 10.849967
n -t 4.000000 -s 4 -x 10.821659 -y 10.245496 -U 0.357937 -V 0.933746 -T 13.534873
n -t 4.000000 -s 1 -x 54.590898 -y 65.034611 -U 0.806382 -V -0.591395 -T 14.629416
n -t 4.000000 -s 6 -x 84.048460 -y 45.867750 -U -0.859233 -V 0.511584 -T 20.553985
n -t 4.000000 -s 8 -x 15.209248 -y 2.112284 -U 0.021998 -V 0.999758 -T 20.776370
n -t 4.000000 -s 7 -x 20.296820 -y 54.739570 -U 0.350062 -V -0.936727 -T 29.820132
n -t 4.000000 -s 4 -x 10.821659 -y 10.245496 -U 0.000000 -V 0.000000 -T 0.000000
n -t 4.000000 -s 8 -x 15.209248 -y 2.112284 -U 0.000000 -V 0.000000 -T 0.000000
n -t 4.000000 -s 0 -x 29.284300 -y 37.558710 -U 0.000000 -V 0.000000 -T 0.000000
n -t 4.000000 -s 7 -x 20.296820 -y 54.739570 -U 0.000000 -V 0.000000 -T 0.000000
n -t 5.000000 -s 1 -x 55.397280 -y 64.443216 -U 0.000000 -V 0.000000 -T 0.000000
n -t 5.000000 -s 6 -x 83.189227 -y 46.379334 -U 0.000000 -V 0.000000 -T 0.000000
n -t 5.000000 -s 3 -x 70.845783 -y 6.699766 -U 0.000000 -V 0.000000 -T 0.000000
n -t 5.000000 -s 5 -x 15.485210 -y 18.161751 -U 0.000000 -V 0.000000 -T 0.000000
n -t 5.000000 -s 4 -x 10.821659 -y 10.245496 -U 0.000000 -V 0.000000 -T 0.000000
n -t 5.000000 -s 8 -x 15.209248 -y 2.112284 -U 0.000000 -V 0.000000 -T 0.000000
n -t 5.000000 -s 9 -x 24.604648 -y 25.826359 -U 0.000000 -V 0.000000 -T 0.000000
n -t 5.000000 -s 0 -x 29.284300 -y 37.558710 -U 0.000000 -V 0.000000 -T 0.000000
n -t 5.000000 -s 7 -x 20.296820 -y 54.739570 -U 0.000000 -V 0.000000 -T 0.000000
n -t 5.000000 -s 5 -x 15.485210 -y 18.161751 -U 0.490590 -V 0.871391 -T 3.706843
n -t 5.000000 -s 3 -x 70.845783 -y 6.699766 -U -0.637819 -V 0.770186 -T 4.378322
n -t 5.000000 -s 9 -x 24.604648 -y 25.826359 -U -0.854693 -V -0.519133 -T 8.542126
n -t 5.000000 -s 0 -x 29.284300 -y 37.558710 -U 0.344734 -V -0.938700 -T 11.973733
n -t 5.000000 -s 4 -x 10.821659 -y 10.245496 -U 0.502716 -V 0.864452 -T 12.894142
n -t 5.000000 -s 1 -x 55.397280 -y 64.443216 -U 0.750030 -V -0.661403 -T 13.089061
n -t 5.000000 -s 8 -x 15.209248 -y 2.112284 -U 0.108003 -V 0.994151 -T 19.393013
n -t 5.000000 -s 6 -x 83.189227 -y 46.379334 -U -0.886006 -V 0.463674 -T 20.287395
n -t 5.000000 -s 7 -x 20.296820 -y 54.739570 -U 0.708727 -V -0.705483 -T 29.811868
n -t 5.000000 -s 9 -x 24.604648 -y 25.826359 -U 0.000000 -V 0.000000 -T 0.000000
n -t 5.000000 -s 4 -x 10.821659 -y 10.245496 -U 0.000000 -V 0.000000 -T 0.000000
n -t 5.000000 -s 8 -x 15.209248 -y 2.112284 -U 0.000000 -V 0.000000 -T 0.000000
n -t 6.000000 -s 1 -x 56.147310 -y 63.781812 -U 0.000000 -V 0.000000 -T 0.000000
n -t 6.000000 -s 6 -x 82.303221 -y 46.843008 -U 0.000000 -V 0.000000 -T 0.000000
n -t 6.000000 -s 3 -x 70.207964 -y 7.469952 -U 0.000000 -V 0.000000 -T 0.000000
n -t 6.000000 -s 5 -x 15.975800 -y 19.033142 -U 0.000000 -V 0.000000 -T 0.000000
n -t 6.000000 -s 9 -x 24.604648 -y 25.826359 -U 0.000000 -V 0.000000 -T 0.000000
n -t 6.000000 -s 4 -x 10.821659 -y 10.245496 -U 0.000000 -V 0.000000 -T 0.000000
n -t 6.000000 -s 8 -x 15.209248 -y 2.112284 -U 0.000000 -V 0.000000 -T 0.000000
n -t 6.000000 -s 7 -x 21.005547 -y 54.034087 -U 0.000000 -V 0.000000 -T 0.000000
n -t 6.000000 -s 0 -x 29.629034 -y 36.620010 -U 0.000000 -V 0.000000 -T 0.000000
n -t 6.000000 -s 5 -x 15.975800 -y 19.033142 -U 0.959822 -V 0.280608 -T 3.089540
n -t 6.000000 -s 3 -x 70.207964 -y 7.469952 -U -0.637819 -V 0.770186 -T 5.751802
n -t 6.000000 -s 9 -x 24.604648 -y 25.826359 -U -0.690894 -V -0.722957 -T 8.197267
n -t 6.000000 -s 0 -x 29.629034 -y 36.620010 -U 0.961717 -V -0.274046 -T 9.980657
n -t 6.000000 -s 1 -x 56.147310 -y 63.781812 -U 0.676533 -V -0.736413 -T 11.668085
n -t 6.000000 -s 4 -x 10.821659 -y 10.245496 -U 0.643642 -V 0.765326 -T 12.615003
n -t 6.000000 -s 8 -x 15.209248 -y 2.112284 -U 0.205334 -V 0.978692 -T 18.175083
n -t 6.000000 -s 6 -x 82.303221 -y 46.843008 -U -0.909514 -V 0.415673 -T 20.078934
n -t 6.000000 -s 7 -x 21.005547 -y 54.034087 -U 0.670747 -V -0.741686 -T 27.166794
n -t 6.000000 -s 9 -x 24.604648 -y 25.826359 -U 0.000000 -V 0.000000 -T 0.000000
n -t 6.000000 -s 4 -x 10.821659 -y 10.245496 -U 0.000000 -V 0.000000 -T 0.000000
n -t 6.000000 -s 8 -x 15.209248 -y 2.112284 -U 0.000000 -V 0.000000 -T 0.000000
n -t 6.000000 -s 7 -x 21.005547 -y 54.034087 -U 0.000000 -V 0.000000 -T 0.000000
n -t 7.000000 -s 1 -x 56.823843 -y 63.045400 -U 0.000000 -V 0.000000 -T 0.000000
n -t 7.000000 -s 6 -x 81.393707 -y 47.258681 -U 0.000000 -V 0.000000 -T 0.000000
n -t 7.000000 -s 3 -x 69.570144 -y 8.240138 -U 0.000000 -V 0.000000 -T 0.000000
n -t 7.000000 -s 5 -x 16.935622 -y 19.313750 -U 0.000000 -V 0.000000 -T 0.000000
n -t 7.000000 -s 9 -x 24.604648 -y 25.826359 -U 0.000000 -V 0.000000 -T 0.000000
n -t 7.000000 -s 4 -x 10.821659 -y 10.245496 -U 0.000000 -V 0.000000 -T 0.000000
n -t 7.000000 -s 8 -x 15.209248 -y 2.112284 -U 0.000000 -V 0.000000 -T 0.000000
n -t 7.000000 -s 0 -x 30.590751 -y 36.345964 -U 0.000000 -V 0.000000 -T 0.000000
n -t 7.000000 -s 7 -x 21.005547 -y 54.034087 -U 0.000000 -V 0.000000 -T 0.000000
n -t 7.000000 -s 5 -x 16.935622 -y 19.313750 -U 0.970476 -V -0.241198 -T 3.753877
n -t 7.000000 -s 3 -x 69.570144 -y 8.240138 -U -0.637819 -V 0.770186 -T 7.125282
n -t 7.000000 -s 9 -x 24.604648 -y 25.826359 -U -0.477005 -V -0.878901 -T 8.440128
n -t 7.000000 -s 0 -x 30.590751 -y 36.345964 -U 0.961717 -V -0.274046 -T 8.980657
n -t 7.000000 -s 1 -x 56.823843 -y 63.045400 -U 0.581633 -V -0.813451 -T 10.391398
n -t 7.000000 -s 4 -x 10.821659 -y 10.245496 -U 0.766983 -V 0.641667 -T 12.721282
n -t 7.000000 -s 8 -x 15.209248 -y 2.112284 -U 0.312943 -V 0.949772 -T 17.157844
n -t 7.000000 -s 6 -x 81.393707 -y 47.258681 -U -0.929795 -V 0.368077 -T 19.924689
n -t 7.000000 -s 7 -x 21.005547 -y 54.034087 -U 0.670747 -V -0.741686 -T 27.166794
n -t 7.000000 -s 9 -x 24.604648 -y 25.826359 -U 0.000000 -V 0.000000 -T 0.000000
n -t 7.000000 -s 4 -x 10.821659 -y 10.245496 -U 0.000000 -V 0.000000 -T 0.000000
n -t 7.000000 -s 8 -x 15.209248 -y 2.112284 -U 0.000000 -V 0.000000 -T 0.000000
n -t 7.000000 -s 7 -x 21.005547 -y 54.034087 -U 0.000000 -V 0.000000 -T 0.000000
n -t 8.000000 -s 1 -x 57.405476 -y 62.231949 -U 0.000000 -V 0.000000 -T 0.000000
n -t 8.000000 -s 6 -x 80.463911 -y 47.626758 -U 0.000000 -V 0.000000 -T 0.000000
n -t 8.000000 -s 3 -x 68.932325 -y 9.010324 -U 0.000000 -V 0.000000 -T 0.000000
n -t 8.000000 -s 5 -x 17.906098 -y 19.072552 -U 0.000000 -V 0.000000 -T 0.000000
n -t 8.000000 -s 9 -x 24.604648 -y 25.826359 -U 0.000000 -V 0.000000 -T 0.000000
n -t 8.000000 -s 4 -x 10.821659 -y 10.245496 -U 0.000000 -V 0.000000 -T 0.000000
n -t 8.000000 -s 8 -x 15.209248 -y 2.112284 -U 0.000000 -V 0.000000 -T 0.000000
n -t 8.000000 -s 0 -x 31.552467 -y 36.071919 -U 0.000000 -V 0.000000 -T 0.000000
n -t 8.000000 -s 7 -x 21.005547 -y 54.034087 -U 0.000000 -V 0.000000 -T 0.000000
n -t 8.000000 -s 5 -x 17.906098 -y 19.072552 -U 0.894346 -V -0.447376 -T 4.819200
n -t 8.000000 -s 0 -x 31.552467 -y 36.071919 -U 0.938786 -V -0.344501 -T 5.834587
n -t 8.000000 -s 3 -x 68.932325 -y 9.010324 -U -0.637819 -V 0.770186 -T 8.498762
n -t 8.000000 -s 9 -x 24.604648 -y 25.826359 -U -0.258935 -V -0.965895 -T 9.224403
n -t 8.000000 -s 1 -x 57.405476 -y 62.231949 -U 0.461877 -V -0.886944 -T 9.286072
n -t 8.000000 -s 4 -x 10.821659 -y 10.245496 -U 0.862977 -V 0.505243 -T 13.203674
n -t 8.000000 -s 8 -x 15.209248 -y 2.112284 -U 0.427804 -V 0.903872 -T 16.378732
n -t 8.000000 -s 6 -x 80.463911 -y 47.626758 -U -0.946967 -V 0.321331 -T 19.820556
n -t 8.000000 -s 7 -x 21.005547 -y 54.034087 -U 0.625804 -V -0.779980 -T 25.606018
n -t 8.000000 -s 6 -x 80.463911 -y 47.626758 -U 0.000000 -V 0.000000 -T 0.000000
n -t 8.000000 -s 9 -x 24.604648 -y 25.826359 -U 0.000000 -V 0.000000 -T 0.000000
n -t 8.000000 -s 4 -x 10.821659 -y 10.245496 -U 0.000000 -V 0.000000 -T 0.000000
n -t 8.000000 -s 8 -x 15.209248 -y 2.112284 -U 0.000000 -V 0.000000 -T 0.000000
n -t 8.000000 -s 7 -x 21.005547 -y 54.034087 -U 0.000000 -V 0.000000 -T 0.000000
n -t 9.000000 -s 1 -x 57.867353 -y 61.345005 -U 0.000000 -V 0.000000 -T 0.000000
n -t 9.000000 -s 6 -x 80.463911 -y 47.626758 -U 0.000000 -V 0.000000 -T 0.000000
n -t 9.000000 -s 3 -x 68.294506 -y 9.780510 -U 0.000000 -V 0.000000 -T 0.000000
n -t 9.000000 -s 5 -x 18.800444 -y 18.625176 -U 0.000000 -V 0.000000 -T 0.000000
n -t 9.000000 -s 9 -x 24.604648 -y 25.826359 -U 0.000000 -V 0.000000 -T 0.000000
n -t 9.000000 -s 4 -x 10.821659 -y 10.245496 -U 0.000000 -V 0.000000 -T 0.000000
n -t 9.000000 -s 8 -x 15.209248 -y 2.112284 -U 0.000000 -V 0.000000 -T 0.000000
n -t 9.000000 -s 0 -x 32.491253 -y 35.727417 -U 0.000000 -V 0.000000 -T 0.000000
n -t 9.000000 -s 7 -x 21.005547 -y 54.034087 -U 0.000000 -V 0.000000 -T 0.000000
n -t 9.000000 -s 0 -x 32.491253 -y 35.727417 -U 0.843859 -V -0.536566 -T 2.774088
n -t 9.000000 -s 5 -x 18.800444 -y 18.625176 -U 0.844814 -V -0.535060 -T 5.981367
n -t 9.000000 -s 1 -x 57.867353 -y 61.345005 -U 0.461877 -V -0.886944 -T 8.286072
n -t 9.000000 -s 9 -x 24.604648 -y 25.826359 -U -0.072019 -V -0.997403 -T 10.428651
n -t 9.000000 -s 3 -x 68.294506 -y 9.780510 -U -0.637819 -V 0.770186 -T 12.245722
n -t 9.000000 -s 4 -x 10.821659 -y 10.245496 -U 0.929298 -V 0.369332 -T 14.023419
n -t 9.000000 -s 8 -x 15.209248 -y 2.112284 -U 0.544599 -V 0.838696 -T 15.872851
n -t 9.000000 -s 6 -x 80.463911 -y 47.626758 -U -0.946967 -V 0.321331 -T 19.820556
n -t 9.000000 -s 7 -x 21.005547 -y 54.034087 -U 0.572629 -V -0.819814 -T 24.145891
n -t 9.000000 -s 6 -x 80.463911 -y 47.626758 -U 0.000000 -V 0.000000 -T 0.000000
n -t 9.000000 -s 9 -x 24.604648 -y 25.826359 -U 0.000000 -V 0.000000 -T 0.000000
n -t 9.000000 -s 4 -x 10.821659 -y 10.245496 -U 0.000000 -V 0.000000 -T 0.000000
n -t 9.000000 -s 8 -x 15.209248 -y 2.112284 -U 0.000000 -V 0.000000 -T 0.000000
n -t 9.000000 -s 7 -x 21.005547 -y 54.034087 -U 0.000000 -V 0.000000 -T 0.000000
n -t 10.000000 -s 1 -x 58.329231 -y 60.458061 -U 0.000000 -V 0.000000 -T 0.000000
n -t 10.000000 -s 6 -x 80.463911 -y 47.626758 -U 0.000000 -V 0.000000 -T 0.000000
n -t 10.000000 -s 3 -x 67.656686 -y 10.550696 -U 0.000000 -V 0.000000 -T 0.000000
n -t 10.000000 -s 5 -x 19.645259 -y 18.090116 -U 0.000000 -V 0.000000 -T 0.000000
n -t 10.000000 -s 9 -x 24.604648 -y 25.826359 -U 0.000000 -V 0.000000 -T 0.000000
n -t 10.000000 -s 4 -x 10.821659 -y 10.245496 -U 0.000000 -V 0.000000 -T 0.000000
n -t 10.000000 -s 8 -x 15.209248 -y 2.112284 -U 0.000000 -V 0.000000 -T 0.000000
n -t 10.000000 -s 0 -x 33.335112 -y 35.190852 -U 0.000000 -V 0.000000 -T 0.000000
n -t 10.000000 -s 7 -x 21.005547 -y 54.034087 -U 0.000000 -V 0.000000 -T 0.000000
n -t 10.000000 -s 0 -x 33.335112 -y 35.190852 -U -0.670675 -V -0.741751 -T 1.044655
n -t 10.000000 -s 5 -x 19.645259 -y 18.090116 -U 0.814949 -V -0.579532 -T 7.173194
n -t 10.000000 -s 1 -x 58.329231 -y 60.458061 -U 0.296546 -V -0.955019 -T 7.391602
n -t 10.000000 -s 9 -x 24.604648 -y 25.826359 -U 0.682903 -V 0.730509 -T 11.758396
n -t 10.000000 -s 3 -x 67.656686 -y 10.550696 -U -0.637819 -V 0.770186 -T 13.619202
n -t 10.000000 -s 4 -x 10.821659 -y 10.245496 -U 0.969828 -V 0.243791 -T 15.125767
n -t 10.000000 -s 8 -x 15.209248 -y 2.112284 -U 0.656284 -V 0.754514 -T 15.666693
n -t 10.000000 -s 6 -x 80.463911 -y 47.626758 -U -0.960573 -V 0.278026 -T 20.761279
n -t 10.000000 -s 7 -x 21.005547 -y 54.034087 -U 0.509913 -V -0.860226 -T 22.805755
n -t 10.000000 -s 6 -x 80.463911 -y 47.626758 -U 0.000000 -V 0.000000 -T 0.000000
n -t 10.000000 -s 4 -x 10.821659 -y 10.245496 -U 0.000000 -V 0.000000 -T 0.000000
n -t 10.000000 -s 8 -x 15.209248 -y 2.112284 -U 0.000000 -V 0.000000 -T 0.000000
n -t 10.000000 -s 9 -x 24.604648 -y 25.826359 -U 0.000000 -V 0.000000 -T 0.000000
n -t 10.000000 -s 7 -x 21.005547 -y 54.034087 -U 0.000000 -V 0.000000 -T 0.000000
n -t 11.000000 -s 1 -x 58.625776 -y 59.503042 -U 0.000000 -V 0.000000 -T 0.000000
n -t 11.000000 -s 6 -x 80.463911 -y 47.626758 -U 0.000000 -V 0.000000 -T 0.000000
n -t 11.000000 -s 3 -x 67.018867 -y 11.320882 -U 0.000000 -V 0.000000 -T 0.000000
n -t 11.000000 -s 5 -x 20.460208 -y 17.510584 -U 0.000000 -V 0.000000 -T 0.000000
n -t 11.000000 -s 4 -x 10.821659 -y 10.245496 -U 0.000000 -V 0.000000 -T 0.000000
n -t 11.000000 -s 8 -x 15.209248 -y 2.112284 -U 0.000000 -V 0.000000 -T 0.000000
n -t 11.000000 -s 0 -x 32.664437 -y 34.449101 -U 0.000000 -V 0.000000 -T 0.000000
n -t 11.000000 -s 9 -x 24.604648 -y 25.826359 -U 0.000000 -V 0.000000 -T 0.000000
n -t 11.000000 -s 7 -x 21.005547 -y 54.034087 -U 0.000000 -V 0.000000 -T 0.000000
n -t 11.000000 -s 0 -x 32.664437 -y 34.449101 -U -0.997920 -V 0.064471 -T 2.232296
n -t 11.000000 -s 1 -x 58.625776 -y 59.503042 -U 0.107139 -V -0.994244 -T 6.739672
n -t 11.000000 -s 5 -x 20.460208 -y 17.510584 -U 0.796080 -V -0.605191 -T 8.376417
n -t 11.000000 -s 9 -x 24.604648 -y 25.826359 -U 0.553891 -V 0.832589 -T 10.529394
n -t 11.000000 -s 3 -x 67.018867 -y 11.320882 -U -0.637819 -V 0.770186 -T 14.992682
n -t 11.000000 -s 8 -x 15.209248 -y 2.112284 -U 0.755722 -V 0.654892 -T 15.772013
n -t 11.000000 -s 4 -x 10.821659 -y 10.245496 -U 0.991056 -V 0.133448 -T 16.454018
n -t 11.000000 -s 7 -x 21.005547 -y 54.034087 -U 0.436471 -V -0.899718 -T 21.607947
n -t 11.000000 -s 6 -x 80.463911 -y 47.626758 -U -0.971253 -V 0.238048 -T 21.741036
n -t 11.000000 -s 6 -x 80.463911 -y 47.626758 -U 0.000000 -V 0.000000 -T 0.000000
n -t 11.000000 -s 9 -x 24.604648 -y 25.826359 -U 0.000000 -V 0.000000 -T 0.000000
n -t 11.000000 -s 7 -x 21.005547 -y 54.034087 -U 0.000000 -V 0.000000 -T 0.000000
n -t 12.000000 -s 1 -x 58.732915 -y 58.508798 -U 0.000000 -V 0.000000 -T 0.000000
n -t 12.000000 -s 6 -x 80.463911 -y 47.626758 -U 0.000000 -V 0.000000 -T 0.000000
n -t 12.000000 -s 3 -x 66.381048 -y 12.091068 -U 0.000000 -V 0.000000 -T 0.000000
n -t 12.000000 -s 5 -x 21.256288 -y 16.905393 -U 0.000000 -V 0.000000 -T 0.000000
n -t 12.000000 -s 8 -x 15.964970 -y 2.767176 -U 0.000000 -V 0.000000 -T 0.000000
n -t 12.000000 -s 4 -x 11.812715 -y 10.378944 -U 0.000000 -V 0.000000 -T 0.000000
n -t 12.000000 -s 0 -x 31.666517 -y 34.513572 -U 0.000000 -V 0.000000 -T 0.000000
n -t 12.000000 -s 9 -x 24.604648 -y 25.826359 -U 0.000000 -V 0.000000 -T 0.000000
n -t 12.000000 -s 7 -x 21.005547 -y 54.034087 -U 0.000000 -V 0.000000 -T 0.000000
n -t 12.000000 -s 0 -x 31.666517 -y 34.513572 -U -0.997212 -V 0.074625 -T 3.437020
n -t 12.000000 -s 1 -x 58.732915 -y 58.508798 -U -0.088239 -V -0.996099 -T 6.328100
n -t 12.000000 -s 9 -x 24.604648 -y 25.826359 -U 0.376471 -V 0.926429 -T 9.653957
n -t 12.000000 -s 5 -x 21.256288 -y 16.905393 -U 0.775465 -V -0.631390 -T 11.795680
n -t 12.000000 -s 3 -x 66.381048 -y 12.091068 -U -0.745628 -V 0.666362 -T 15.501357
n -t 12.000000 -s 8 -x 15.964970 -y 2.767176 -U 0.907321 -V 0.420438 -T 15.913279
n -t 12.000000 -s 4 -x 11.812715 -y 10.378944 -U 0.998775 -V -0.049492 -T 18.613525
n -t 12.000000 -s 7 -x 21.005547 -y 54.034087 -U 0.351529 -V -0.936177 -T 20.577336
n -t 12.000000 -s 6 -x 80.463911 -y 47.626758 -U -0.497494 -V 0.867467 -T 21.903897
n -t 12.000000 -s 9 -x 24.604648 -y 25.826359 -U 0.000000 -V 0.000000 -T 0.000000
n -t 12.000000 -s 7 -x 21.005547 -y 54.034087 -U 0.000000 -V 0.000000 -T 0.000000
n -t 13.000000 -s 1 -x 58.644676 -y 57.512699 -U 0.000000 -V 0.000000 -T 0.000000
n -t 13.000000 -s 6 -x 79.966417 -y 48.494226 -U 0.000000 -V 0.000000 -T 0.000000
n -t 13.000000 -s 5 -x 22.031754 -y 16.274003 -U 0.000000 -V 0.000000 -T 0.000000
n -t 13.000000 -s 8 -x 16.872291 -y 3.187614 -U 0.000000 -V 0.000000 -T 0.000000
n -t 13.000000 -s 4 -x 12.811490 -y 10.329452 -U 0.000000 -V 0.000000 -T 0.000000
n -t 13.000000 -s 0 -x 30.669305 -y 34.588197 -U 0.000000 -V 0.000000 -T 0.000000
n -t 13.000000 -s 9 -x 24.604648 -y 25.826359 -U 0.000000 -V 0.000000 -T 0.000000
n -t 13.000000 -s 7 -x 21.005547 -y 54.034087 -U 0.000000 -V 0.000000 -T 0.000000
n -t 13.000000 -s 3 -x 65.635420 -y 12.757431 -U 0.000000 -V 0.000000 -T 0.000000
n -t 13.000000 -s 0 -x 30.669305 -y 34.588197 -U -0.996940 -V 0.078175 -T 6.511917
n -t 13.000000 -s 1 -x 58.644676 -y 57.512699 -U -0.380643 -V -0.924722 -T 6.932115
n -t 13.000000 -s 9 -x 24.604648 -y 25.826359 -U -0.046045 -V 0.998939 -T 9.280749
n -t 13.000000 -s 5 -x 22.031754 -y 16.274003 -U 0.774859 -V -0.632134 -T 10.985416
n -t 13.000000 -s 3 -x 65.635420 -y 12.757431 -U -0.663450 -V 0.748220 -T 12.263581
n -t 13.000000 -s 8 -x 16.872291 -y 3.187614 -U 0.912173 -V 0.409805 -T 14.987950
n -t 13.000000 -s 4 -x 12.811490 -y 10.329452 -U 0.998415 -V -0.056288 -T 17.760568
n -t 13.000000 -s 7 -x 21.005547 -y 54.034087 -U 0.165191 -V -0.986262 -T 19.200609
n -t 13.000000 -s 6 -x 79.966417 -y 48.494226 -U -0.553336 -V 0.832958 -T 20.998340
n -t 13.000000 -s 9 -x 24.604648 -y 25.826359 -U 0.000000 -V 0.000000 -T 0.000000
n -t 13.000000 -s 7 -x 21.005547 -y 54.034087 -U 0.000000 -V 0.000000 -T 0.000000
n -t 14.000000 -s 1 -x 58.264033 -y 56.587977 -U 0.000000 -V 0.000000 -T 0.000000
n -t 14.000000 -s 6 -x 79.413081 -y 49.327184 -U 0.000000 -V 0.000000 -T 0.000000
n -t 14.000000 -s 5 -x 22.806613 -y 15.641869 -U 0.000000 -V 0.000000 -T 0.000000
n -t 14.000000 -s 8 -x 17.784465 -y 3.597419 -U 0.000000 -V 0.000000 -T 0.000000
n -t 14.000000 -s 4 -x 13.809904 -y 10.273164 -U 0.000000 -V 0.000000 -T 0.000000
n -t 14.000000 -s 0 -x 29.672366 -y 34.666372 -U 0.000000 -V 0.000000 -T 0.000000
n -t 14.000000 -s 9 -x 24.604648 -y 25.826359 -U 0.000000 -V 0.000000 -T 0.000000
n -t 14.000000 -s 7 -x 21.005547 -y 54.034087 -U 0.000000 -V 0.000000 -T 0.000000
n -t 14.000000 -s 3 -x 64.971969 -y 13.505651 -U 0.000000 -V 0.000000 -T 0.000000
n -t 14.000000 -s 1 -x 58.264033 -y 56.587977 -U -0.467080 -V -0.884215 -T 6.707014
n -t 14.000000 -s 0 -x 29.672366 -y 34.666372 -U -0.996901 -V 0.078662 -T 7.155564
n -t 14.000000 -s 3 -x 64.971969 -y 13.505651 -U -0.517052 -V 0.855954 -T 9.276599
n -t 14.000000 -s 9 -x 24.604648 -y 25.826359 -U -0.214568 -V 0.976709 -T 9.627111
n -t 14.000000 -s 5 -x 22.806613 -y 15.641869 -U 0.774859 -V -0.632134 -T 9.985416
n -t 14.000000 -s 8 -x 17.784465 -y 3.597419 -U 0.912173 -V 0.409805 -T 13.987950
n -t 14.000000 -s 4 -x 13.809904 -y 10.273164 -U 0.998415 -V -0.056288 -T 16.760568
n -t 14.000000 -s 7 -x 21.005547 -y 54.034087 -U 0.081274 -V -0.996692 -T 18.867260
n -t 14.000000 -s 6 -x 79.413081 -y 49.327184 -U -0.608655 -V 0.793435 -T 20.184471
n -t 14.000000 -s 8 -x 17.784465 -y 3.597419 -U 0.000000 -V 0.000000 -T 0.000000
n -t 14.000000 -s 4 -x 13.809904 -y 10.273164 -U 0.000000 -V 0.000000 -T 0.000000
n -t 14.000000 -s 9 -x 24.604648 -y 25.826359 -U 0.000000 -V 0.000000 -T 0.000000
n -t 14.000000 -s 7 -x 21.005547 -y 54.034087 -U 0.000000 -V 0.000000 -T 0.000000
n -t 15.000000 -s 1 -x 57.796953 -y 55.703762 -U 0.000000 -V 0.000000 -T 0.000000
n -t 15.000000 -s 6 -x 78.804426 -y 50.120619 -U 0.000000 -V 0.000000 -T 0.000000
n -t 15.000000 -s 5 -x 23.581471 -y 15.009735 -U 0.000000 -V 0.000000 -T 0.000000
n -t 15.000000 -s 8 -x 17.784465 -y 3.597419 -U 0.000000 -V 0.000000 -T 0.000000
n -t 15.000000 -s 4 -x 13.809904 -y 10.273164 -U 0.000000 -V 0.000000 -T 0.000000
n -t 15.000000 -s 0 -x 28.675464 -y 34.745034 -U 0.000000 -V 0.000000 -T 0.000000
n -t 15.000000 -s 9 -x 24.604648 -y 25.826359 -U 0.000000 -V 0.000000 -T 0.000000
n -t 15.000000 -s 7 -x 21.005547 -y 54.034087 -U 0.000000 -V 0.000000 -T 0.000000
n -t 15.000000 -s 3 -x 64.454917 -y 14.361605 -U 0.000000 -V 0.000000 -T 0.000000
n -t 15.000000 -s 1 -x 57.796953 -y 55.703762 -U -0.542470 -V -0.840075 -T 6.541432
n -t 15.000000 -s 3 -x 64.454917 -y 14.361605 -U -0.436269 -V 0.899816 -T 7.685695
n -t 15.000000 -s 0 -x 28.675464 -y 34.745034 -U -0.996874 -V 0.079009 -T 7.814646
n -t 15.000000 -s 5 -x 23.581471 -y 15.009735 -U 0.774859 -V -0.632134 -T 8.985416
n -t 15.000000 -s 9 -x 24.604648 -y 25.826359 -U -0.363372 -V 0.931644 -T 10.235783
n -t 15.000000 -s 8 -x 17.784465 -y 3.597419 -U 0.912173 -V 0.409805 -T 13.987950
n -t 15.000000 -s 4 -x 13.809904 -y 10.273164 -U 0.998415 -V -0.056288 -T 16.760568
n -t 15.000000 -s 7 -x 21.005547 -y 54.034087 -U -0.006443 -V -0.999979 -T 18.672011
n -t 15.000000 -s 6 -x 78.804426 -y 50.120619 -U -0.662562 -V 0.749007 -T 19.464312
n -t 15.000000 -s 8 -x 17.784465 -y 3.597419 -U 0.000000 -V 0.000000 -T 0.000000
n -t 15.000000 -s 4 -x 13.809904 -y 10.273164 -U 0.000000 -V 0.000000 -T 0.000000
n -t 15.000000 -s 9 -x 24.604648 -y 25.826359 -U 0.000000 -V 0.000000 -T 0.000000
n -t 15.000000 -s 7 -x 21.005547 -y 54.034087 -U 0.000000 -V 0.000000 -T 0.000000