n -t * -s 0  -x 44.308010000000003 -y 32.192709999999998 -Z 0 -z 1  -v circle -c black
n -t * -s 1  -x 11.53031 -y 46.822879999999998 -Z 0 -z 1  -v circle -c black
n -t * -s 2  -x 30.254860000000001 -y 45.52948 -Z 0 -z 1  -v circle -c black
n -t * -s 3  -x 66.872150000000005 -y 56.942360000000001 -Z 0 -z 1  -v circle -c black
n -t * -s 4  -x 36.984319999999997 -y 81.147660000000002 -Z 0 -z 1  -v circle -c black
n -t * -s 5  -x 18.58785 -y 74.28322 -Z 0 -z 1  -v circle -c black
n -t * -s 6  -x 87.306830000000005 -y 13.45126 -Z 0 -z 1  -v circle -c black
n -t * -s 7  -x 33.720230000000001 -y 3.9943900000000001 -Z 0 -z 1  -v circle -c black
n -t * -s 8  -x 87.439310000000006 -y 38.027830000000002 -Z 0 -z 1  -v circle -c black
n -t * -s 9  -x 60.273449999999997 -y 7.4307280000000002 -Z 0 -z 1  -v circle -c black
n -t * -s 10  -x 3.4058679999999999 -y 91.006839999999997 -Z 0 -z 1  -v circle -c black
n -t * -s 11  -x 89.486980000000003 -y 87.685149999999993 -Z 0 -z 1  -v circle -c black
n -t * -s 12  -x 50.263779999999997 -y 71.572550000000007 -Z 0 -z 1  -v circle -c black
n -t * -s 13  -x 7.1138890000000004 -y 72.907520000000005 -Z 0 -z 1  -v circle -c black
n -t * -s 14  -x 42.505380000000002 -y 26.805150000000001 -Z 0 -z 1  -v circle -c black
n -t * -s 15  -x 14.73433 -y 3.1382759999999998 -Z 0 -z 1  -v circle -c black
n -t * -s 16  -x 85.39367 -y 60.176360000000003 -Z 0 -z 1  -v circle -c black
n -t * -s 17  -x 64.890950000000004 -y 34.609830000000002 -Z 0 -z 1  -v circle -c black
n -t * -s 18  -x 28.56373 -y 16.650849999999998 -Z 0 -z 1  -v circle -c black
n -t * -s 19  -x 85.898709999999994 -y 35.62238 -Z 0 -z 1  -v circle -c black
n -t * -s 20  -x 29.912369999999999 -y 64.534049999999993 -Z 0 -z 2  -v circle -c black
V -t * -v 1.0a5 -a 0
W -t * -x 100 -y 100
A -t * -n 1 -p 0 -o 0x7fffffff -c 30 -a 1
A -t * -h 1 -m 1073741823 -s 0
n -t 0 -s 20 -S COLOR -c red -o black -i red -I black
n -t 0.000000 -s 20 -x 29.912370 -y 64.534050 -U -3.601669 -V -1.650496 -T 5.290193
n -t 0.000000 -s 0 -x 44.308010 -y 32.192710 -U -0.406651 -V 0.913584 -T 30.400519
n -t 0.000000 -s 1 -x 11.530310 -y 46.822880 -U 0.720126 -V 0.693843 -T 20.526176
n -t 0.000000 -s 2 -x 30.254860 -y 45.529480 -U -0.018019 -V 0.999838 -T 14.007656
n -t 0.000000 -s 3 -x 66.872150 -y 56.942360 -U -0.979549 -V 0.201203 -T 32.731407
n -t 0.000000 -s 4 -x 36.984320 -y 81.147660 -U -0.391664 -V -0.920108 -T 13.056149
n -t 0.000000 -s 5 -x 18.587850 -y 74.283220 -U 0.757852 -V -0.652427 -T 9.942927
n -t 0.000000 -s 10 -x 3.405868 -y 91.006840 -U 0.707557 -V -0.706657 -T 32.462024
n -t 0.000000 -s 12 -x 50.263780 -y 71.572550 -U -0.945075 -V -0.326853 -T 16.534168
n -t 0.000000 -s 13 -x 7.113889 -y 72.907520 -U 0.938690 -V -0.344764 -T 19.287563
n -t 0.000000 -s 14 -x 42.505380 -y 26.805150 -U -0.316606 -V 0.948557 -T 34.775040
n -t 1.000000 -s 0 -x 43.901359 -y 33.106294 -U -0.508622 -V 0.860990 -T 29.584917
n -t 1.000000 -s 1 -x 12.250436 -y 47.516723 -U 0.675046 -V 0.737776 -T 15.828600
n -t 1.000000 -s 2 -x 30.236841 -y 46.529318 -U -0.233436 -V 0.972372 -T 11.818907
n -t 1.000000 -s 3 -x 65.892601 -y 57.143563 -U -0.989648 -V 0.143514 -T 34.995928
n -t 1.000000 -s 4 -x 36.592656 -y 80.227552 -U -0.509950 -V -0.860204 -T 15.162659
n -t 1.000000 -s 5 -x 19.345702 -y 73.630793 -U 0.543851 -V -0.839182 -T 7.806809
n -t 1.000000 -s 10 -x 4.113425 -y 90.300183 -U 0.629247 -V -0.777205 -T 30.275922
n -t 1.000000 -s 12 -x 49.318705 -y 71.245697 -U -0.939851 -V -0.341584 -T 19.480475
n -t 1.000000 -s 13 -x 8.052579 -y 72.562756 -U 0.883525 -V -0.468384 -T 15.665091
n -t 1.000000 -s 14 -x 42.188774 -y 27.753707 -U -0.411866 -V 0.911244 -T 33.551516
n -t 2.000000 -s 0 -x 43.392737 -y 33.967284 -U -0.604374 -V 0.796701 -T 29.223356
n -t 2.000000 -s 1 -x 12.925482 -y 48.254499 -U 0.601953 -V 0.798532 -T 11.253027
n -t 2.000000 -s 2 -x 30.003405 -y 47.501690 -U -0.469134 -V 0.883127 -T 10.548581
n -t 2.000000 -s 3 -x 64.902952 -y 57.287078 -U -0.995655 -V 0.093114 -T 37.378032
n -t 2.000000 -s 4 -x 36.082705 -y 79.367348 -U -0.593532 -V -0.804811 -T 17.532367
n -t 2.000000 -s 5 -x 19.889553 -y 72.791611 -U 0.236982 -V -0.971514 -T 6.897462
n -t 2.000000 -s 10 -x 4.742672 -y 89.522978 -U 0.536104 -V -0.844152 -T 28.512829
n -t 2.000000 -s 12 -x 48.378854 -y 70.904113 -U -0.935790 -V -0.352557 -T 22.431168
n -t 2.000000 -s 13 -x 8.936103 -y 72.094372 -U 0.785217 -V -0.619221 -T 12.540288
n -t 2.000000 -s 14 -x 41.776908 -y 28.664951 -U -0.505251 -V 0.862973 -T 32.739442
n -t 3.000000 -s 0 -x 42.788363 -y 34.763984 -U -0.690331 -V 0.723493 -T 29.303812
n -t 3.000000 -s 1 -x 13.527435 -y 49.053031 -U 0.468246 -V 0.883598 -T 6.916655
n -t 3.000000 -s 2 -x 29.534271 -y 48.384817 -U -0.681468 -V 0.731848 -T 10.300650
n -t 3.000000 -s 4 -x 35.489174 -y 78.562537 -U -0.653392 -V -0.757020 -T 20.071959
n -t 3.000000 -s 5 -x 20.126534 -y 71.820097 -U -0.082995 -V -0.996550 -T 7.279900
n -t 3.000000 -s 10 -x 5.278776 -y 88.678826 -U 0.429256 -V -0.903183 -T 27.215251
n -t 3.000000 -s 12 -x 47.443063 -y 70.551556 -U -0.932564 -V -0.361004 -T 25.384711
n -t 3.000000 -s 13 -x 9.721320 -y 71.475151 -U 0.619529 -V -0.784974 -T 10.150296
n -t 3.000000 -s 14 -x 41.271657 -y 29.527924 -U -0.593525 -V 0.804816 -T 32.343503
n -t 4.000000 -s 0 -x 42.098032 -y 35.487478 -U -0.764188 -V 0.644994 -T 29.798160
n -t 4.000000 -s 1 -x 13.995681 -y 49.936629 -U 0.185579 -V 0.982629 -T 3.136779
n -t 4.000000 -s 2 -x 28.852803 -y 49.116664 -U -0.834428 -V 0.551117 -T 10.995518
n -t 4.000000 -s 4 -x 34.835782 -y 77.805517 -U -0.697239 -V -0.716838 -T 22.723749
n -t 4.000000 -s 5 -x 20.043539 -y 70.823547 -U -0.332033 -V -0.943268 -T 8.666831
n -t 4.000000 -s 10 -x 5.708032 -y 87.775643 -U 0.311921 -V -0.950108 -T 26.410719
n -t 4.000000 -s 12 -x 46.510499 -y 70.190552 -U -0.929953 -V -0.367679 -T 28.340190
n -t 4.000000 -s 13 -x 10.340849 -y 70.690177 -U 0.375246 -V -0.926925 -T 8.763903
n -t 4.000000 -s 14 -x 40.678132 -y 30.332740 -U -0.673876 -V 0.738845 -T 32.354711
n -t 4.000000 -s 0 -x 42.098032 -y 35.487478 -U 0.000000 -V 0.000000 -T 0.000000
n -t 4.000000 -s 2 -x 28.852803 -y 49.116664 -U 0.000000 -V 0.000000 -T 0.000000
n -t 4.000000 -s 4 -x 34.835782 -y 77.805517 -U 0.000000 -V 0.000000 -T 0.000000
n -t 4.000000 -s 5 -x 20.043539 -y 70.823547 -U 0.000000 -V 0.000000 -T 0.000000
n -t 4.000000 -s 10 -x 5.708032 -y 87.775643 -U 0.000000 -V 0.000000 -T 0.000000
n -t 4.000000 -s 12 -x 46.510499 -y 70.190552 -U 0.000000 -V 0.000000 -T 0.000000
n -t 4.000000 -s 13 -x 10.340849 -y 70.690177 -U 0.000000 -V 0.000000 -T 0.000000
n -t 4.000000 -s 14 -x 40.678132 -y 30.332740 -U 0.000000 -V 0.000000 -T 0.000000
n -t 5.000000 -s 0 -x 42.098032 -y 35.487478 -U 0.000000 -V 0.000000 -T 0.000000
n -t 5.000000 -s 2 -x 28.852803 -y 49.116664 -U 0.000000 -V 0.000000 -T 0.000000
n -t 5.000000 -s 4 -x 34.835782 -y 77.805517 -U 0.000000 -V 0.000000 -T 0.000000
n -t 5.000000 -s 5 -x 20.043539 -y 70.823547 -U 0.000000 -V 0.000000 -T 0.000000
n -t 5.000000 -s 10 -x 5.708032 -y 87.775643 -U 0.000000 -V 0.000000 -T 0.000000
n -t 5.000000 -s 12 -x 46.510499 -y 70.190552 -U 0.000000 -V 0.000000 -T 0.000000
n -t 5.000000 -s 13 -x 10.340849 -y 70.690177 -U 0.000000 -V 0.000000 -T 0.000000
n -t 5.000000 -s 14 -x 40.678132 -y 30.332740 -U 0.000000 -V 0.000000 -T 0.000000
n -t 6.000000 -s 0 -x 42.098032 -y 35.487478 -U 0.000000 -V 0.000000 -T 0.000000
n -t 6.000000 -s 2 -x 28.852803 -y 49.116664 -U 0.000000 -V 0.000000 -T 0.000000
n -t 6.000000 -s 4 -x 34.835782 -y 77.805517 -U 0.000000 -V 0.000000 -T 0.000000
n -t 6.000000 -s 5 -x 20.043539 -y 70.823547 -U 0.000000 -V 0.000000 -T 0.000000
n -t 6.000000 -s 10 -x 5.708032 -y 87.775643 -U 0.000000 -V 0.000000 -T 0.000000
n -t 6.000000 -s 12 -x 46.510499 -y 70.190552 -U 0.000000 -V 0.000000 -T 0.000000
n -t 6.000000 -s 13 -x 10.340849 -y 70.690177 -U 0.000000 -V 0.000000 -T 0.000000
n -t 6.000000 -s 14 -x 40.678132 -y 30.332740 -U 0.000000 -V 0.000000 -T 0.000000
n -t 7.000000 -s 0 -x 42.098032 -y 35.487478 -U 0.000000 -V 0.000000 -T 0.000000
n -t 7.000000 -s 2 -x 28.852803 -y 49.116664 -U 0.000000 -V 0.000000 -T 0.000000
n -t 7.000000 -s 4 -x 34.835782 -y 77.805517 -U 0.000000 -V 0.000000 -T 0.000000
n -t 7.000000 -s 5 -x 20.043539 -y 70.823547 -U 0.000000 -V 0.000000 -T 0.000000
n -t 7.000000 -s 10 -x 5.708032 -y 87.775643 -U 0.000000 -V 0.000000 -T 0.000000
n -t 7.000000 -s 12 -x 46.510499 -y 70.190552 -U 0.000000 -V 0.000000 -T 0.000000
n -t 7.000000 -s 13 -x 10.340849 -y 70.690177 -U 0.000000 -V 0.000000 -T 0.000000
n -t 7.000000 -s 14 -x 40.678132 -y 30.332740 -U 0.000000 -V 0.000000 -T 0.000000
n -t 8.000000 -s 20 -x 10.858850 -y 55.802610 -U 3.702642 -V -1.995130 -T 4.447063
n -t 8.000000 -s 0 -x 42.098032 -y 35.487478 -U 0.000000 -V 0.000000 -T 0.000000
n -t 8.000000 -s 2 -x 28.852803 -y 49.116664 -U 0.000000 -V 0.000000 -T 0.000000
n -t 8.000000 -s 4 -x 34.835782 -y 77.805517 -U 0.000000 -V 0.000000 -T 0.000000
n -t 8.000000 -s 5 -x 20.043539 -y 70.823547 -U 0.000000 -V 0.000000 -T 0.000000
n -t 8.000000 -s 10 -x 5.708032 -y 87.775643 -U 0.000000 -V 0.000000 -T 0.000000
n -t 8.000000 -s 12 -x 46.510499 -y 70.190552 -U 0.000000 -V 0.000000 -T 0.000000
n -t 8.000000 -s 13 -x 10.340849 -y 70.690177 -U 0.000000 -V 0.000000 -T 0.000000
n -t 8.000000 -s 14 -x 40.678132 -y 30.332740 -U 0.000000 -V 0.000000 -T 0.000000
n -t 9.000000 -s 0 -x 42.098032 -y 35.487478 -U 0.000000 -V 0.000000 -T 0.000000
n -t 9.000000 -s 2 -x 28.852803 -y 49.116664 -U 0.000000 -V 0.000000 -T 0.000000
n -t 9.000000 -s 4 -x 34.835782 -y 77.805517 -U 0.000000 -V 0.000000 -T 0.000000
n -t 9.000000 -s 5 -x 20.043539 -y 70.823547 -U 0.000000 -V 0.000000 -T 0.000000
n -t 9.000000 -s 10 -x 5.708032 -y 87.775643 -U 0.000000 -V 0.000000 -T 0.000000
n -t 9.000000 -s 12 -x 46.510499 -y 70.190552 -U 0.000000 -V 0.000000 -T 0.000000
n -t 9.000000 -s 13 -x 10.340849 -y 70.690177 -U 0.000000 -V 0.000000 -T 0.000000
n -t 9.000000 -s 14 -x 40.678132 -y 30.332740 -U 0.000000 -V 0.000000 -T 0.000000
n -t 10.000000 -s 0 -x 42.098032 -y 35.487478 -U 0.000000 -V 0.000000 -T 0.000000
n -t 10.000000 -s 2 -x 28.852803 -y 49.116664 -U 0.000000 -V 0.000000 -T 0.000000
n -t 10.000000 -s 4 -x 34.835782 -y 77.805517 -U 0.000000 -V 0.000000 -T 0.000000
n -t 10.000000 -s 5 -x 20.043539 -y 70.823547 -U 0.000000 -V 0.000000 -T 0.000000
n -t 10.000000 -s 10 -x 5.708032 -y 87.775643 -U 0.000000 -V 0.000000 -T 0.000000
n -t 10.000000 -s 12 -x 46.510499 -y 70.190552 -U 0.000000 -V 0.000000 -T 0.000000
n -t 10.000000 -s 13 -x 10.340849 -y 70.690177 -U 0.000000 -V 0.000000 -T 0.000000
n -t 10.000000 -s 14 -x 40.678132 -y 30.332740 -U 0.000000 -V 0.000000 -T 0.000000
n -t 11.000000 -s 0 -x 42.098032 -y 35.487478 -U 0.000000 -V 0.000000 -T 0.000000
n -t 11.000000 -s 1 -x 14.577801 -y 53.018920 -U 0.000000 -V 0.000000 -T 0.000000
n -t 11.000000 -s 4 -x 34.835782 -y 77.805517 -U 0.000000 -V 0.000000 -T 0.000000
n -t 11.000000 -s 5 -x 20.043539 -y 70.823547 -U 0.000000 -V 0.000000 -T 0.000000
n -t 11.000000 -s 10 -x 5.708032 -y 87.775643 -U 0.000000 -V 0.000000 -T 0.000000
n -t 11.000000 -s 12 -x 46.510499 -y 70.190552 -U 0.000000 -V 0.000000 -T 0.000000
n -t 11.000000 -s 13 -x 10.340849 -y 70.690177 -U 0.000000 -V 0.000000 -T 0.000000
n -t 11.000000 -s 14 -x 40.678132 -y 30.332740 -U 0.000000 -V 0.000000 -T 0.000000
n -t 12.000000 -s 0 -x 42.098032 -y 35.487478 -U 0.000000 -V 0.000000 -T 0.000000
n -t 12.000000 -s 1 -x 14.577801 -y 53.018920 -U 0.000000 -V 0.000000 -T 0.000000
n -t 12.000000 -s 4 -x 34.835782 -y 77.805517 -U 0.000000 -V 0.000000 -T 0.000000
n -t 12.000000 -s 5 -x 20.043539 -y 70.823547 -U 0.000000 -V 0.000000 -T 0.000000
n -t 12.000000 -s 10 -x 5.708032 -y 87.775643 -U 0.000000 -V 0.000000 -T 0.000000
n -t 12.000000 -s 12 -x 46.510499 -y 70.190552 -U 0.000000 -V 0.000000 -T 0.000000
n -t 12.000000 -s 13 -x 10.340849 -y 70.690177 -U 0.000000 -V 0.000000 -T 0.000000
n -t 12.000000 -s 14 -x 40.678132 -y 30.332740 -U 0.000000 -V 0.000000 -T 0.000000
n -t 13.000000 -s 0 -x 42.098032 -y 35.487478 -U 0.000000 -V 0.000000 -T 0.000000
n -t 13.000000 -s 1 -x 14.577801 -y 53.018920 -U 0.000000 -V 0.000000 -T 0.000000
n -t 13.000000 -s 4 -x 34.835782 -y 77.805517 -U 0.000000 -V 0.000000 -T 0.000000
n -t 13.000000 -s 5 -x 20.043539 -y 70.823547 -U 0.000000 -V 0.000000 -T 0.000000
n -t 13.000000 -s 10 -x 5.708032 -y 87.775643 -U 0.000000 -V 0.000000 -T 0.000000
n -t 13.000000 -s 12 -x 46.510499 -y 70.190552 -U 0.000000 -V 0.000000 -T 0.000000
n -t 13.000000 -s 13 -x 10.340849 -y 70.690177 -U 0.000000 -V 0.000000 -T 0.000000
n -t 13.000000 -s 14 -x 40.678132 -y 30.332740 -U 0.000000 -V 0.000000 -T 0.000000
n -t 14.000000 -s 20 -x 27.324730 -y 46.930140 -U 0.386044 -V 3.915545 -T 10.512668
n -t 14.000000 -s 0 -x 42.098032 -y 35.487478 -U 0.000000 -V 0.000000 -T 0.000000
n -t 14.000000 -s 1 -x 14.577801 -y 53.018920 -U 0.000000 -V 0.000000 -T 0.000000
n -t 14.000000 -s 4 -x 34.835782 -y 77.805517 -U 0.000000 -V 0.000000 -T 0.000000
n -t 14.000000 -s 5 -x 20.043539 -y 70.823547 -U 0.000000 -V 0.000000 -T 0.000000
n -t 14.000000 -s 10 -x 5.708032 -y 87.775643 -U 0.000000 -V 0.000000 -T 0.000000
n -t 14.000000 -s 12 -x 46.510499 -y 70.190552 -U 0.000000 -V 0.000000 -T 0.000000
n -t 14.000000 -s 13 -x 10.340849 -y 70.690177 -U 0.000000 -V 0.000000 -T 0.000000
n -t 14.000000 -s 14 -x 40.678132 -y 30.332740 -U 0.000000 -V 0.000000 -T 0.000000
n -t 15.000000 -s 0 -x 42.098032 -y 35.487478 -U 0.000000 -V 0.000000 -T 0.000000
n -t 15.000000 -s 1 -x 14.577801 -y 53.018920 -U 0.000000 -V 0.000000 -T 0.000000
n -t 15.000000 -s 4 -x 34.835782 -y 77.805517 -U 0.000000 -V 0.000000 -T 0.000000
n -t 15.000000 -s 5 -x 20.043539 -y 70.823547 -U 0.000000 -V 0.000000 -T 0.000000
n -t 15.000000 -s 10 -x 5.708032 -y 87.775643 -U 0.000000 -V 0.000000 -T 0.000000
n -t 15.000000 -s 12 -x 46.510499 -y 70.190552 -U 0.000000 -V 0.000000 -T 0.000000
n -t 15.000000 -s 13 -x 10.340849 -y 70.690177 -U 0.000000 -V 0.000000 -T 0.000000
n -t 15.000000 -s 14 -x 40.678132 -y 30.332740 -U 0.000000 -V 0.000000 -T 0.000000
n -t 16.000000 -s 0 -x 42.098032 -y 35.487478 -U 0.000000 -V 0.000000 -T 0.000000
n -t 16.000000 -s 1 -x 14.577801 -y 53.018920 -U 0.000000 -V 0.000000 -T 0.000000
n -t 16.000000 -s 4 -x 34.835782 -y 77.805517 -U 0.000000 -V 0.000000 -T 0.000000
n -t 16.000000 -s 5 -x 20.043539 -y 70.823547 -U 0.000000 -V 0.000000 -T 0.000000
n -t 16.000000 -s 10 -x 5.708032 -y 87.775643 -U 0.000000 -V 0.000000 -T 0.000000
n -t 16.000000 -s 12 -x 46.510499 -y 70.190552 -U 0.000000 -V 0.000000 -T 0.000000
n -t 16.000000 -s 13 -x 10.340849 -y 70.690177 -U 0.000000 -V 0.000000 -T 0.000000
n -t 16.000000 -s 14 -x 40.678132 -y 30.332740 -U 0.000000 -V 0.000000 -T 0.000000
n -t 17.000000 -s 0 -x 42.098032 -y 35.487478 -U 0.000000 -V 0.000000 -T 0.000000
n -t 17.000000 -s 1 -x 14.577801 -y 53.018920 -U 0.000000 -V 0.000000 -T 0.000000
n -t 17.000000 -s 4 -x 34.835782 -y 77.805517 -U 0.000000 -V 0.000000 -T 0.000000
n -t 17.000000 -s 5 -x 20.043539 -y 70.823547 -U 0.000000 -V 0.000000 -T 0.000000
n -t 17.000000 -s 10 -x 5.708032 -y 87.775643 -U 0.000000 -V 0.000000 -T 0.000000
n -t 17.000000 -s 12 -x 46.510499 -y 70.190552 -U 0.000000 -V 0.000000 -T 0.000000
n -t 17.000000 -s 13 -x 10.340849 -y 70.690177 -U 0.000000 -V 0.000000 -T 0.000000
n -t 17.000000 -s 14 -x 40.678132 -y 30.332740 -U 0.000000 -V 0.000000 -T 0.000000
n -t 19.000000 -s 0 -x 42.098032 -y 35.487478 -U -0.382531 -V 0.923943 -T 28.573939
n -t 19.000000 -s 1 -x 14.577801 -y 53.018920 -U 0.736282 -V 0.676675 -T 14.934151
n -t 19.000000 -s 2 -x 28.852803 -y 49.116664 -U 0.023117 -V 0.999733 -T 12.395852
n -t 19.000000 -s 3 -x 47.976809 -y 58.870013 -U -0.925912 -V 0.377739 -T 15.219913
n -t 19.000000 -s 4 -x 34.835782 -y 77.805517 -U -0.442892 -V -0.896575 -T 7.600896
n -t 19.000000 -s 5 -x 20.043539 -y 70.823547 -U 0.905541 -V -0.424259 -T 5.172274
n -t 19.000000 -s 10 -x 5.708032 -y 87.775643 -U 0.742109 -V -0.670279 -T 26.729727
n -t 19.000000 -s 12 -x 46.510499 -y 70.190552 -U -0.977975 -V -0.208720 -T 12.644154
n -t 19.000000 -s 13 -x 10.340849 -y 70.690177 -U 0.976414 -V -0.215906 -T 14.370981
n -t 19.000000 -s 14 -x 40.678132 -y 30.332740 -U -0.301118 -V 0.953587 -T 32.935854
n -t 20.000000 -s 0 -x 41.715501 -y 36.411420 -U -0.334551 -V 0.942378 -T 31.091680
n -t 20.000000 -s 1 -x 15.314083 -y 53.695596 -U 0.650498 -V 0.759508 -T 17.024537
n -t 20.000000 -s 2 -x 28.875920 -y 50.116397 -U 0.037649 -V 0.999291 -T 15.321423
n -t 20.000000 -s 3 -x 47.050897 -y 59.247752 -U -0.841539 -V 0.540196 -T 15.688165
n -t 20.000000 -s 4 -x 34.392890 -y 76.908942 -U -0.591027 -V -0.806651 -T 3.040063
n -t 20.000000 -s 5 -x 20.949080 -y 70.399288 -U 0.999996 -V 0.002776 -T 3.691946
n -t 20.000000 -s 10 -x 6.450141 -y 87.105364 -U 0.811791 -V -0.583948 -T 23.567518
n -t 20.000000 -s 12 -x 45.532523 -y 69.981832 -U -0.999614 -V 0.027776 -T 10.897665
n -t 20.000000 -s 13 -x 11.317263 -y 70.474271 -U 0.999996 -V -0.002776 -T 13.323800
n -t 20.000000 -s 14 -x 40.377014 -y 31.286327 -U -0.264545 -V 0.964373 -T 35.582924
n -t 20.000000 -s 0 -x 41.715501 -y 36.411420 -U 0.000000 -V 0.000000 -T 0.000000
n -t 20.000000 -s 1 -x 15.314083 -y 53.695596 -U 0.000000 -V 0.000000 -T 0.000000
n -t 20.000000 -s 2 -x 28.875920 -y 50.116397 -U 0.000000 -V 0.000000 -T 0.000000
n -t 20.000000 -s 3 -x 47.050897 -y 59.247752 -U 0.000000 -V 0.000000 -T 0.000000
n -t 20.000000 -s 5 -x 20.949080 -y 70.399288 -U 0.000000 -V 0.000000 -T 0.000000
n -t 20.000000 -s 10 -x 6.450141 -y 87.105364 -U 0.000000 -V 0.000000 -T 0.000000
n -t 20.000000 -s 12 -x 45.532523 -y 69.981832 -U 0.000000 -V 0.000000 -T 0.000000
n -t 20.000000 -s 13 -x 11.317263 -y 70.474271 -U 0.000000 -V 0.000000 -T 0.000000
n -t 20.000000 -s 14 -x 40.377014 -y 31.286327 -U 0.000000 -V 0.000000 -T 0.000000
n -t 21.000000 -s 0 -x 41.715501 -y 36.411420 -U 0.000000 -V 0.000000 -T 0.000000
n -t 21.000000 -s 1 -x 15.314083 -y 53.695596 -U 0.000000 -V 0.000000 -T 0.000000
n -t 21.000000 -s 2 -x 28.875920 -y 50.116397 -U 0.000000 -V 0.000000 -T 0.000000
n -t 21.000000 -s 3 -x 47.050897 -y 59.247752 -U 0.000000 -V 0.000000 -T 0.000000
n -t 21.000000 -s 5 -x 20.949080 -y 70.399288 -U 0.000000 -V 0.000000 -T 0.000000
n -t 21.000000 -s 10 -x 6.450141 -y 87.105364 -U 0.000000 -V 0.000000 -T 0.000000
n -t 21.000000 -s 12 -x 45.532523 -y 69.981832 -U 0.000000 -V 0.000000 -T 0.000000
n -t 21.000000 -s 13 -x 11.317263 -y 70.474271 -U 0.000000 -V 0.000000 -T 0.000000
n -t 21.000000 -s 14 -x 40.377014 -y 31.286327 -U 0.000000 -V 0.000000 -T 0.000000
n -t 22.000000 -s 0 -x 41.715501 -y 36.411420 -U 0.000000 -V 0.000000 -T 0.000000
n -t 22.000000 -s 1 -x 15.314083 -y 53.695596 -U 0.000000 -V 0.000000 -T 0.000000
n -t 22.000000 -s 2 -x 28.875920 -y 50.116397 -U 0.000000 -V 0.000000 -T 0.000000
n -t 22.000000 -s 3 -x 47.050897 -y 59.247752 -U 0.000000 -V 0.000000 -T 0.000000
n -t 22.000000 -s 5 -x 20.949080 -y 70.399288 -U 0.000000 -V 0.000000 -T 0.000000
n -t 22.000000 -s 10 -x 6.450141 -y 87.105364 -U 0.000000 -V 0.000000 -T 0.000000
n -t 22.000000 -s 12 -x 45.532523 -y 69.981832 -U 0.000000 -V 0.000000 -T 0.000000
n -t 22.000000 -s 13 -x 11.317263 -y 70.474271 -U 0.000000 -V 0.000000 -T 0.000000
n -t 22.000000 -s 14 -x 40.377014 -y 31.286327 -U 0.000000 -V 0.000000 -T 0.000000
n -t 23.000000 -s 0 -x 41.715501 -y 36.411420 -U 0.000000 -V 0.000000 -T 0.000000
n -t 23.000000 -s 1 -x 15.314083 -y 53.695596 -U 0.000000 -V 0.000000 -T 0.000000
n -t 23.000000 -s 2 -x 28.875920 -y 50.116397 -U 0.000000 -V 0.000000 -T 0.000000
n -t 23.000000 -s 3 -x 47.050897 -y 59.247752 -U 0.000000 -V 0.000000 -T 0.000000
n -t 23.000000 -s 5 -x 20.949080 -y 70.399288 -U 0.000000 -V 0.000000 -T 0.000000
n -t 23.000000 -s 10 -x 6.450141 -y 87.105364 -U 0.000000 -V 0.000000 -T 0.000000
n -t 23.000000 -s 12 -x 45.532523 -y 69.981832 -U 0.000000 -V 0.000000 -T 0.000000
n -t 23.000000 -s 13 -x 11.317263 -y 70.474271 -U 0.000000 -V 0.000000 -T 0.000000
n -t 23.000000 -s 14 -x 40.377014 -y 31.286327 -U 0.000000 -V 0.000000 -T 0.000000
n -t 25.000000 -s 1 -x 15.314083 -y 53.695596 -U 0.423251 -V 0.906013 -T 32.965669
n -t 25.000000 -s 2 -x 28.875920 -y 50.116397 -U 0.065875 -V 0.997828 -T 33.059242
n -t 25.000000 -s 3 -x 47.050897 -y 59.247752 -U -0.477303 -V 0.878739 -T 27.825708
n -t 25.000000 -s 4 -x 32.596130 -y 74.456670 -U -0.088607 -V 0.996067 -T 8.690148
n -t 25.000000 -s 5 -x 20.949080 -y 70.399288 -U 0.507958 -V 0.861382 -T 15.541050
n -t 25.000000 -s 10 -x 6.450141 -y 87.105364 -U 0.999216 -V 0.039579 -T 19.952491
n -t 25.000000 -s 12 -x 45.532523 -y 69.981832 -U -0.615647 -V 0.788022 -T 17.983038
n -t 25.000000 -s 13 -x 11.317263 -y 70.474271 -U 0.751441 -V 0.659800 -T 21.703100
n -t 26.000000 -s 1 -x 15.737333 -y 54.601608 -U 0.423251 -V 0.906013 -T 31.965669
n -t 26.000000 -s 2 -x 28.941795 -y 51.114225 -U 0.065875 -V 0.997828 -T 32.059242
n -t 26.000000 -s 3 -x 46.573594 -y 60.126491 -U -0.477303 -V 0.878739 -T 26.825708
n -t 26.000000 -s 4 -x 32.507522 -y 75.452737 -U -0.088607 -V 0.996067 -T 7.690148
n -t 26.000000 -s 5 -x 21.457039 -y 71.260670 -U 0.507958 -V 0.861382 -T 14.541050
n -t 26.000000 -s 10 -x 7.449357 -y 87.144944 -U 0.999216 -V 0.039579 -T 18.952491
n -t 26.000000 -s 12 -x 44.916876 -y 70.769854 -U -0.615647 -V 0.788022 -T 16.983038
n -t 26.000000 -s 13 -x 12.068705 -y 71.134071 -U 0.751441 -V 0.659800 -T 20.703100
n -t 27.000000 -s 1 -x 16.160584 -y 55.507621 -U 0.423251 -V 0.906013 -T 30.965669
n -t 27.000000 -s 2 -x 29.007671 -y 52.112053 -U 0.065875 -V 0.997828 -T 31.059242
n -t 27.000000 -s 3 -x 46.096291 -y 61.005229 -U -0.477303 -V 0.878739 -T 25.825708
n -t 27.000000 -s 4 -x 32.418915 -y 76.448804 -U -0.088607 -V 0.996067 -T 6.690148
n -t 27.000000 -s 5 -x 21.964997 -y 72.122051 -U 0.507958 -V 0.861382 -T 13.541050
n -t 27.000000 -s 10 -x 8.448574 -y 87.184523 -U 0.999216 -V 0.039579 -T 17.952491
n -t 27.000000 -s 12 -x 44.301229 -y 71.557876 -U -0.615647 -V 0.788022 -T 15.983038
n -t 27.000000 -s 13 -x 12.820146 -y 71.793871 -U 0.751441 -V 0.659800 -T 19.703100
n -t 28.000000 -s 20 -x 31.383080 -y 88.092970 -U 1.573338 -V -3.178693 -T 26.263265
n -t 28.000000 -s 1 -x 16.583835 -y 56.413633 -U 0.423251 -V 0.906013 -T 29.965669
n -t 28.000000 -s 2 -x 29.073546 -y 53.109881 -U 0.065875 -V 0.997828 -T 30.059242
n -t 28.000000 -s 3 -x 45.618988 -y 61.883968 -U -0.477303 -V 0.878739 -T 24.825708
n -t 28.000000 -s 4 -x 32.330307 -y 77.444870 -U -0.088607 -V 0.996067 -T 5.690148
n -t 28.000000 -s 5 -x 22.472956 -y 72.983433 -U 0.507958 -V 0.861382 -T 12.541050
n -t 28.000000 -s 10 -x 9.447790 -y 87.224102 -U 0.999216 -V 0.039579 -T 16.952491
n -t 28.000000 -s 12 -x 43.685582 -y 72.345898 -U -0.615647 -V 0.788022 -T 14.983038
n -t 28.000000 -s 13 -x 13.571588 -y 72.453671 -U 0.751441 -V 0.659800 -T 18.703100
n -t 29.000000 -s 1 -x 17.007086 -y 57.319646 -U 0.500413 -V 0.865787 -T 26.872321
n -t 29.000000 -s 2 -x 29.139421 -y 54.107709 -U 0.122962 -V 0.992411 -T 26.042135
n -t 29.000000 -s 3 -x 45.141684 -y 62.762707 -U -0.481977 -V 0.876184 -T 20.281867
n -t 29.000000 -s 4 -x 32.241700 -y 78.440937 -U 0.109743 -V 0.993960 -T 1.512677
n -t 29.000000 -s 5 -x 22.980914 -y 73.844814 -U 0.669446 -V 0.742861 -T 9.901130
n -t 29.000000 -s 10 -x 10.447007 -y 87.263682 -U 0.994597 -V -0.103810 -T 17.631688
n -t 29.000000 -s 12 -x 43.069935 -y 73.133920 -U -0.651388 -V 0.758745 -T 10.526108
n -t 29.000000 -s 13 -x 14.323029 -y 73.113470 -U 0.844826 -V 0.535041 -T 17.055888
n -t 29.000000 -s 1 -x 17.007086 -y 57.319646 -U 0.000000 -V 0.000000 -T 0.000000
n -t 29.000000 -s 2 -x 29.139421 -y 54.107709 -U 0.000000 -V 0.000000 -T 0.000000
n -t 29.000000 -s 3 -x 45.141684 -y 62.762707 -U 0.000000 -V 0.000000 -T 0.000000
n -t 29.000000 -s 5 -x 22.980914 -y 73.844814 -U 0.000000 -V 0.000000 -T 0.000000
n -t 29.000000 -s 10 -x 10.447007 -y 87.263682 -U 0.000000 -V 0.000000 -T 0.000000
n -t 29.000000 -s 12 -x 43.069935 -y 73.133920 -U 0.000000 -V 0.000000 -T 0.000000
n -t 29.000000 -s 13 -x 14.323029 -y 73.113470 -U 0.000000 -V 0.000000 -T 0.000000
n -t 30.000000 -s 1 -x 17.007086 -y 57.319646 -U 0.000000 -V 0.000000 -T 0.000000
n -t 30.000000 -s 2 -x 29.139421 -y 54.107709 -U 0.000000 -V 0.000000 -T 0.000000
n -t 30.000000 -s 3 -x 45.141684 -y 62.762707 -U 0.000000 -V 0.000000 -T 0.000000
n -t 30.000000 -s 5 -x 22.980914 -y 73.844814 -U 0.000000 -V 0.000000 -T 0.000000
n -t 30.000000 -s 10 -x 10.447007 -y 87.263682 -U 0.000000 -V 0.000000 -T 0.000000
n -t 30.000000 -s 12 -x 43.069935 -y 73.133920 -U 0.000000 -V 0.000000 -T 0.000000
n -t 30.000000 -s 13 -x 14.323029 -y 73.113470 -U 0.000000 -V 0.000000 -T 0.000000
n -t 31.000000 -s 1 -x 17.007086 -y 57.319646 -U 0.000000 -V 0.000000 -T 0.000000
n -t 31.000000 -s 2 -x 29.139421 -y 54.107709 -U 0.000000 -V 0.000000 -T 0.000000
n -t 31.000000 -s 3 -x 45.141684 -y 62.762707 -U 0.000000 -V 0.000000 -T 0.000000
n -t 31.000000 -s 5 -x 22.980914 -y 73.844814 -U 0.000000 -V 0.000000 -T 0.000000
n -t 31.000000 -s 10 -x 10.447007 -y 87.263682 -U 0.000000 -V 0.000000 -T 0.000000
n -t 31.000000 -s 12 -x 43.069935 -y 73.133920 -U 0.000000 -V 0.000000 -T 0.000000
n -t 31.000000 -s 13 -x 14.323029 -y 73.113470 -U 0.000000 -V 0.000000 -T 0.000000
n -t 32.000000 -s 1 -x 17.007086 -y 57.319646 -U 0.000000 -V 0.000000 -T 0.000000
n -t 32.000000 -s 2 -x 29.139421 -y 54.107709 -U 0.000000 -V 0.000000 -T 0.000000
n -t 32.000000 -s 3 -x 45.141684 -y 62.762707 -U 0.000000 -V 0.000000 -T 0.000000
n -t 32.000000 -s 4 -x 32.407705 -y 79.944477 -U 0.000000 -V 0.000000 -T 0.000000
n -t 32.000000 -s 5 -x 22.980914 -y 73.844814 -U 0.000000 -V 0.000000 -T 0.000000
n -t 32.000000 -s 10 -x 10.447007 -y 87.263682 -U 0.000000 -V 0.000000 -T 0.000000
n -t 32.000000 -s 13 -x 14.323029 -y 73.113470 -U 0.000000 -V 0.000000 -T 0.000000
n -t 33.000000 -s 1 -x 17.007086 -y 57.319646 -U 0.000000 -V 0.000000 -T 0.000000
n -t 33.000000 -s 2 -x 29.139421 -y 54.107709 -U 0.000000 -V 0.000000 -T 0.000000
n -t 33.000000 -s 3 -x 45.141684 -y 62.762707 -U 0.000000 -V 0.000000 -T 0.000000
n -t 33.000000 -s 4 -x 32.407705 -y 79.944477 -U 0.000000 -V 0.000000 -T 0.000000
n -t 33.000000 -s 5 -x 22.980914 -y 73.844814 -U 0.000000 -V 0.000000 -T 0.000000
n -t 33.000000 -s 10 -x 10.447007 -y 87.263682 -U 0.000000 -V 0.000000 -T 0.000000
n -t 33.000000 -s 13 -x 14.323029 -y 73.113470 -U 0.000000 -V 0.000000 -T 0.000000
n -t 34.000000 -s 1 -x 17.007086 -y 57.319646 -U 0.000000 -V 0.000000 -T 0.000000
n -t 34.000000 -s 2 -x 29.139421 -y 54.107709 -U 0.000000 -V 0.000000 -T 0.000000
n -t 34.000000 -s 3 -x 45.141684 -y 62.762707 -U 0.000000 -V 0.000000 -T 0.000000
n -t 34.000000 -s 4 -x 32.407705 -y 79.944477 -U 0.000000 -V 0.000000 -T 0.000000
n -t 34.000000 -s 5 -x 22.980914 -y 73.844814 -U 0.000000 -V 0.000000 -T 0.000000
n -t 34.000000 -s 10 -x 10.447007 -y 87.263682 -U 0.000000 -V 0.000000 -T 0.000000
n -t 34.000000 -s 13 -x 14.323029 -y 73.113470 -U 0.000000 -V 0.000000 -T 0.000000
n -t 35.000000 -s 1 -x 17.007086 -y 57.319646 -U 0.000000 -V 0.000000 -T 0.000000
n -t 35.000000 -s 2 -x 29.139421 -y 54.107709 -U 0.000000 -V 0.000000 -T 0.000000
n -t 35.000000 -s 4 -x 32.407705 -y 79.944477 -U 0.000000 -V 0.000000 -T 0.000000
n -t 35.000000 -s 5 -x 22.980914 -y 73.844814 -U 0.000000 -V 0.000000 -T 0.000000
n -t 35.000000 -s 10 -x 10.447007 -y 87.263682 -U 0.000000 -V 0.000000 -T 0.000000
n -t 35.000000 -s 12 -x 43.069935 -y 73.133920 -U 0.000000 -V 0.000000 -T 0.000000
n -t 35.000000 -s 13 -x 14.323029 -y 73.113470 -U 0.000000 -V 0.000000 -T 0.000000
n -t 36.000000 -s 1 -x 17.007086 -y 57.319646 -U 0.000000 -V 0.000000 -T 0.000000
n -t 36.000000 -s 2 -x 29.139421 -y 54.107709 -U 0.000000 -V 0.000000 -T 0.000000
n -t 36.000000 -s 4 -x 32.407705 -y 79.944477 -U 0.000000 -V 0.000000 -T 0.000000
n -t 36.000000 -s 5 -x 22.980914 -y 73.844814 -U 0.000000 -V 0.000000 -T 0.000000
n -t 36.000000 -s 10 -x 10.447007 -y 87.263682 -U 0.000000 -V 0.000000 -T 0.000000
n -t 36.000000 -s 12 -x 43.069935 -y 73.133920 -U 0.000000 -V 0.000000 -T 0.000000
n -t 36.000000 -s 13 -x 14.323029 -y 73.113470 -U 0.000000 -V 0.000000 -T 0.000000
n -t 37.000000 -s 1 -x 17.007086 -y 57.319646 -U 0.000000 -V 0.000000 -T 0.000000
n -t 37.000000 -s 2 -x 29.139421 -y 54.107709 -U 0.000000 -V 0.000000 -T 0.000000
n -t 37.000000 -s 4 -x 32.407705 -y 79.944477 -U 0.000000 -V 0.000000 -T 0.000000
n -t 37.000000 -s 5 -x 22.980914 -y 73.844814 -U 0.000000 -V 0.000000 -T 0.000000
n -t 37.000000 -s 10 -x 10.447007 -y 87.263682 -U 0.000000 -V 0.000000 -T 0.000000
n -t 37.000000 -s 12 -x 43.069935 -y 73.133920 -U 0.000000 -V 0.000000 -T 0.000000
n -t 37.000000 -s 13 -x 14.323029 -y 73.113470 -U 0.000000 -V 0.000000 -T 0.000000
n -t 38.000000 -s 1 -x 17.007086 -y 57.319646 -U 0.000000 -V 0.000000 -T 0.000000
n -t 38.000000 -s 2 -x 29.139421 -y 54.107709 -U 0.000000 -V 0.000000 -T 0.000000
n -t 38.000000 -s 4 -x 32.407705 -y 79.944477 -U 0.000000 -V 0.000000 -T 0.000000
n -t 38.000000 -s 5 -x 22.980914 -y 73.844814 -U 0.000000 -V 0.000000 -T 0.000000
n -t 38.000000 -s 10 -x 10.447007 -y 87.263682 -U 0.000000 -V 0.000000 -T 0.000000
n -t 38.000000 -s 12 -x 43.069935 -y 73.133920 -U 0.000000 -V 0.000000 -T 0.000000
n -t 38.000000 -s 13 -x 14.323029 -y 73.113470 -U 0.000000 -V 0.000000 -T 0.000000
n -t 40.000000 -s 0 -x 41.715501 -y 36.411420 -U 0.533895 -V 0.845551 -T 11.009958
n -t 40.000000 -s 1 -x 17.007086 -y 57.319646 -U 0.976307 -V -0.216392 -T 29.063117
n -t 40.000000 -s 2 -x 29.139421 -y 54.107709 -U 0.981163 -V -0.193181 -T 16.529254
n -t 40.000000 -s 3 -x 45.141684 -y 62.762707 -U 0.371130 -V -0.928581 -T 8.799604
n -t 40.000000 -s 4 -x 32.407705 -y 79.944477 -U 0.511500 -V -0.859283 -T 29.907956
n -t 40.000000 -s 5 -x 22.980914 -y 73.844814 -U 0.752246 -V -0.658883 -T 31.267694
n -t 40.000000 -s 8 -x 87.439310 -y 38.027830 -U -0.952242 -V 0.305344 -T 34.040677
n -t 40.000000 -s 12 -x 43.069935 -y 73.133920 -U 0.296315 -V -0.955090 -T 19.275470
n -t 40.000000 -s 14 -x 40.377014 -y 31.286327 -U 0.468112 -V 0.883669 -T 16.119136