n -t * -s 0  -x 17.403510000000001 -y 17.403510000000001 -Z 0 -z 1  -v circle -c black
n -t * -s 1  -x 89.095299999999995 -y 89.095299999999995 -Z 0 -z 1  -v circle -c black
n -t * -s 2  -x 12.880890000000001 -y 12.880890000000001 -Z 0 -z 1  -v circle -c black
n -t * -s 3  -x 49.280000000000001 -y 49.280000000000001 -Z 0 -z 1  -v circle -c black
n -t * -s 4  -x 19.618639999999999 -y 19.618639999999999 -Z 0 -z 1  -v circle -c black
n -t * -s 5  -x 62.49483 -y 62.49483 -Z 0 -z 1  -v circle -c black
n -t * -s 6  -x 75.247659999999996 -y 75.247659999999996 -Z 0 -z 1  -v circle -c black
n -t * -s 7  -x 15.7624 -y 15.7624 -Z 0 -z 1  -v circle -c black
n -t * -s 8  -x 21.436769999999999 -y 21.436769999999999 -Z 0 -z 1  -v circle -c black
n -t * -s 9  -x 71.535120000000006 -y 71.535120000000006 -Z 0 -z 1  -v circle -c black
n -t * -s 10  -x 70.971639999999994 -y 70.971639999999994 -Z 0 -z 2  -v circle -c black
V -t * -v 1.0a5 -a 0
W -t * -x 100 -y 100
A -t * -n 1 -p 0 -o 0x7fffffff -c 30 -a 1
A -t * -h 1 -m 1073741823 -s 0
n -t 0 -s 10 -S COLOR -c red -o black -i red -I black
n -t 0.000000 -s 10 -x 70.971640 -y 70.971640 -U 1.566736 -V 1.566736 -T 6.754588
n -t 0.000000 -s 1 -x 89.095300 -y 89.095300 -U -0.707107 -V -0.707107 -T 18.130726
n -t 0.000000 -s 3 -x 49.280000 -y 49.280000 -U 0.707107 -V 0.707107 -T 23.176611
n -t 0.000000 -s 5 -x 62.494830 -y 62.494830 -U 0.707107 -V 0.707107 -T 4.488020
n -t 0.000000 -s 1 -x 89.095300 -y 89.095300 -U 0.000000 -V 0.000000 -T 0.000000
n -t 0.000000 -s 3 -x 49.280000 -y 49.280000 -U 0.000000 -V 0.000000 -T 0.000000
n -t 0.000000 -s 5 -x 62.494830 -y 62.494830 -U 0.000000 -V 0.000000 -T 0.000000
n -t 0.000000 -s 6 -x 75.247660 -y 75.247660 -U 0.000000 -V 0.000000 -T 0.000000
n -t 1.000000 -s 1 -x 89.095300 -y 89.095300 -U 0.000000 -V 0.000000 -T 0.000000
n -t 1.000000 -s 3 -x 49.280000 -y 49.280000 -U 0.000000 -V 0.000000 -T 0.000000
n -t 1.000000 -s 5 -x 62.494830 -y 62.494830 -U 0.000000 -V 0.000000 -T 0.000000
n -t 1.000000 -s 6 -x 75.247660 -y 75.247660 -U 0.000000 -V 0.000000 -T 0.000000
n -t 2.000000 -s 1 -x 89.095300 -y 89.095300 -U 0.000000 -V 0.000000 -T 0.000000
n -t 2.000000 -s 3 -x 49.280000 -y 49.280000 -U 0.000000 -V 0.000000 -T 0.000000
n -t 2.000000 -s 5 -x 62.494830 -y 62.494830 -U 0.000000 -V 0.000000 -T 0.000000
n -t 2.000000 -s 9 -x 71.535120 -y 71.535120 -U 0.000000 -V 0.000000 -T 0.000000
n -t 3.000000 -s 1 -x 89.095300 -y 89.095300 -U 0.000000 -V 0.000000 -T 0.000000
n -t 3.000000 -s 3 -x 49.280000 -y 49.280000 -U 0.000000 -V 0.000000 -T 0.000000
n -t 3.000000 -s 5 -x 62.494830 -y 62.494830 -U 0.000000 -V 0.000000 -T 0.000000
n -t 3.000000 -s 9 -x 71.535120 -y 71.535120 -U 0.000000 -V 0.000000 -T 0.000000
n -t 4.000000 -s 1 -x 89.095300 -y 89.095300 -U 0.000000 -V 0.000000 -T 0.000000
n -t 4.000000 -s 3 -x 49.280000 -y 49.280000 -U 0.000000 -V 0.000000 -T 0.000000
n -t 4.000000 -s 5 -x 62.494830 -y 62.494830 -U 0.000000 -V 0.000000 -T 0.000000
n -t 4.000000 -s 9 -x 71.535120 -y 71.535120 -U 0.000000 -V 0.000000 -T 0.000000
n -t 5.000000 -s 1 -x 89.095300 -y 89.095300 -U 0.000000 -V 0.000000 -T 0.000000
n -t 5.000000 -s 3 -x 49.280000 -y 49.280000 -U 0.000000 -V 0.000000 -T 0.000000
n -t 5.000000 -s 5 -x 62.494830 -y 62.494830 -U 0.000000 -V 0.000000 -T 0.000000
n -t 5.000000 -s 9 -x 71.535120 -y 71.535120 -U 0.000000 -V 0.000000 -T 0.000000
n -t 6.000000 -s 1 -x 89.095300 -y 89.095300 -U 0.000000 -V 0.000000 -T 0.000000
n -t 6.000000 -s 3 -x 49.280000 -y 49.280000 -U 0.000000 -V 0.000000 -T 0.000000
n -t 6.000000 -s 5 -x 62.494830 -y 62.494830 -U 0.000000 -V 0.000000 -T 0.000000
n -t 6.000000 -s 9 -x 71.535120 -y 71.535120 -U 0.000000 -V 0.000000 -T 0.000000
n -t 7.000000 -s 1 -x 89.095300 -y 89.095300 -U 0.000000 -V 0.000000 -T 0.000000
n -t 7.000000 -s 3 -x 49.280000 -y 49.280000 -U 0.000000 -V 0.000000 -T 0.000000
n -t 7.000000 -s 5 -x 62.494830 -y 62.494830 -U 0.000000 -V 0.000000 -T 0.000000
n -t 7.000000 -s 9 -x 71.535120 -y 71.535120 -U 0.000000 -V 0.000000 -T 0.000000
n -t 8.000000 -s 1 -x 89.095300 -y 89.095300 -U 0.000000 -V 0.000000 -T 0.000000
n -t 8.000000 -s 3 -x 49.280000 -y 49.280000 -U 0.000000 -V 0.000000 -T 0.000000
n -t 8.000000 -s 5 -x 62.494830 -y 62.494830 -U 0.000000 -V 0.000000 -T 0.000000
n -t 8.000000 -s 9 -x 71.535120 -y 71.535120 -U 0.000000 -V 0.000000 -T 0.000000
n -t 9.000000 -s 10 -x 81.554300 -y 81.554300 -U 0.495673 -V 0.495673 -T 18.299067
n -t 9.000000 -s 1 -x 89.095300 -y 89.095300 -U 0.000000 -V 0.000000 -T 0.000000
n -t 9.000000 -s 3 -x 49.280000 -y 49.280000 -U 0.000000 -V 0.000000 -T 0.000000
n -t 9.000000 -s 5 -x 62.494830 -y 62.494830 -U 0.000000 -V 0.000000 -T 0.000000
n -t 9.000000 -s 9 -x 71.535120 -y 71.535120 -U 0.000000 -V 0.000000 -T 0.000000
n -t 10.000000 -s 1 -x 89.095300 -y 89.095300 -U 0.000000 -V 0.000000 -T 0.000000
n -t 10.000000 -s 3 -x 49.280000 -y 49.280000 -U 0.000000 -V 0.000000 -T 0.000000
n -t 10.000000 -s 5 -x 62.494830 -y 62.494830 -U 0.000000 -V 0.000000 -T 0.000000
n -t 10.000000 -s 9 -x 71.535120 -y 71.535120 -U 0.000000 -V 0.000000 -T 0.000000
n -t 11.000000 -s 3 -x 49.280000 -y 49.280000 -U 0.000000 -V 0.000000 -T 0.000000
n -t 11.000000 -s 5 -x 62.494830 -y 62.494830 -U 0.000000 -V 0.000000 -T 0.000000
n -t 11.000000 -s 6 -x 75.247660 -y 75.247660 -U 0.000000 -V 0.000000 -T 0.000000
n -t 11.000000 -s 9 -x 71.535120 -y 71.535120 -U 0.000000 -V 0.000000 -T 0.000000
n -t 12.000000 -s 3 -x 49.280000 -y 49.280000 -U 0.000000 -V 0.000000 -T 0.000000
n -t 12.000000 -s 5 -x 62.494830 -y 62.494830 -U 0.000000 -V 0.000000 -T 0.000000
n -t 12.000000 -s 6 -x 75.247660 -y 75.247660 -U 0.000000 -V 0.000000 -T 0.000000
n -t 12.000000 -s 9 -x 71.535120 -y 71.535120 -U 0.000000 -V 0.000000 -T 0.000000
n -t 13.000000 -s 3 -x 49.280000 -y 49.280000 -U 0.000000 -V 0.000000 -T 0.000000
n -t 13.000000 -s 5 -x 62.494830 -y 62.494830 -U 0.000000 -V 0.000000 -T 0.000000
n -t 13.000000 -s 6 -x 75.247660 -y 75.247660 -U 0.000000 -V 0.000000 -T 0.000000
n -t 13.000000 -s 9 -x 71.535120 -y 71.535120 -U 0.000000 -V 0.000000 -T 0.000000
n -t 14.000000 -s 3 -x 49.280000 -y 49.280000 -U 0.000000 -V 0.000000 -T 0.000000
n -t 14.000000 -s 5 -x 62.494830 -y 62.494830 -U 0.000000 -V 0.000000 -T 0.000000
n -t 14.000000 -s 6 -x 75.247660 -y 75.247660 -U 0.000000 -V 0.000000 -T 0.000000
n -t 14.000000 -s 9 -x 71.535120 -y 71.535120 -U 0.000000 -V 0.000000 -T 0.000000
n -t 15.000000 -s 3 -x 49.280000 -y 49.280000 -U 0.000000 -V 0.000000 -T 0.000000
n -t 15.000000 -s 5 -x 62.494830 -y 62.494830 -U 0.000000 -V 0.000000 -T 0.000000
n -t 15.000000 -s 6 -x 75.247660 -y 75.247660 -U 0.000000 -V 0.000000 -T 0.000000
n -t 15.000000 -s 9 -x 71.535120 -y 71.535120 -U 0.000000 -V 0.000000 -T 0.000000
n -t 16.000000 -s 3 -x 49.280000 -y 49.280000 -U 0.000000 -V 0.000000 -T 0.000000
n -t 16.000000 -s 5 -x 62.494830 -y 62.494830 -U 0.000000 -V 0.000000 -T 0.000000
n -t 16.000000 -s 6 -x 75.247660 -y 75.247660 -U 0.000000 -V 0.000000 -T 0.000000
n -t 16.000000 -s 9 -x 71.535120 -y 71.535120 -U 0.000000 -V 0.000000 -T 0.000000
n -t 17.000000 -s 3 -x 49.280000 -y 49.280000 -U 0.000000 -V 0.000000 -T 0.000000
n -t 17.000000 -s 5 -x 62.494830 -y 62.494830 -U 0.000000 -V 0.000000 -T 0.000000
n -t 17.000000 -s 6 -x 75.247660 -y 75.247660 -U 0.000000 -V 0.000000 -T 0.000000
n -t 17.000000 -s 9 -x 71.535120 -y 71.535120 -U 0.000000 -V 0.000000 -T 0.000000
n -t 18.000000 -s 3 -x 49.280000 -y 49.280000 -U 0.000000 -V 0.000000 -T 0.000000
n -t 18.000000 -s 5 -x 62.494830 -y 62.494830 -U 0.000000 -V 0.000000 -T 0.000000
n -t 18.000000 -s 6 -x 75.247660 -y 75.247660 -U 0.000000 -V 0.000000 -T 0.000000
n -t 18.000000 -s 9 -x 71.535120 -y 71.535120 -U 0.000000 -V 0.000000 -T 0.000000
n -t 19.000000 -s 3 -x 49.280000 -y 49.280000 -U 0.000000 -V 0.000000 -T 0.000000
n -t 19.000000 -s 5 -x 62.494830 -y 62.494830 -U 0.000000 -V 0.000000 -T 0.000000
n -t 19.000000 -s 6 -x 75.247660 -y 75.247660 -U 0.000000 -V 0.000000 -T 0.000000
n -t 19.000000 -s 9 -x 71.535120 -y 71.535120 -U 0.000000 -V 0.000000 -T 0.000000
n -t 20.000000 -s 3 -x 49.280000 -y 49.280000 -U 0.000000 -V 0.000000 -T 0.000000
n -t 20.000000 -s 5 -x 62.494830 -y 62.494830 -U 0.000000 -V 0.000000 -T 0.000000
n -t 20.000000 -s 6 -x 75.247660 -y 75.247660 -U 0.000000 -V 0.000000 -T 0.000000
n -t 20.000000 -s 9 -x 71.535120 -y 71.535120 -U 0.000000 -V 0.000000 -T 0.000000
n -t 21.000000 -s 3 -x 49.280000 -y 49.280000 -U 0.000000 -V 0.000000 -T 0.000000
n -t 21.000000 -s 5 -x 62.494830 -y 62.494830 -U 0.000000 -V 0.000000 -T 0.000000
n -t 21.000000 -s 6 -x 75.247660 -y 75.247660 -U 0.000000 -V 0.000000 -T 0.000000
n -t 21.000000 -s 9 -x 71.535120 -y 71.535120 -U 0.000000 -V 0.000000 -T 0.000000
n -t 22.000000 -s 3 -x 49.280000 -y 49.280000 -U 0.000000 -V 0.000000 -T 0.000000
n -t 22.000000 -s 5 -x 62.494830 -y 62.494830 -U 0.000000 -V 0.000000 -T 0.000000
n -t 22.000000 -s 6 -x 75.247660 -y 75.247660 -U 0.000000 -V 0.000000 -T 0.000000
n -t 22.000000 -s 9 -x 71.535120 -y 71.535120 -U 0.000000 -V 0.000000 -T 0.000000
n -t 23.000000 -s 3 -x 49.280000 -y 49.280000 -U 0.000000 -V 0.000000 -T 0.000000
n -t 23.000000 -s 5 -x 62.494830 -y 62.494830 -U 0.000000 -V 0.000000 -T 0.000000
n -t 23.000000 -s 6 -x 75.247660 -y 75.247660 -U 0.000000 -V 0.000000 -T 0.000000
n -t 23.000000 -s 9 -x 71.535120 -y 71.535120 -U 0.000000 -V 0.000000 -T 0.000000
n -t 24.000000 -s 3 -x 49.280000 -y 49.280000 -U 0.000000 -V 0.000000 -T 0.000000
n -t 24.000000 -s 5 -x 62.494830 -y 62.494830 -U 0.000000 -V 0.000000 -T 0.000000
n -t 24.000000 -s 6 -x 75.247660 -y 75.247660 -U 0.000000 -V 0.000000 -T 0.000000
n -t 24.000000 -s 9 -x 71.535120 -y 71.535120 -U 0.000000 -V 0.000000 -T 0.000000
n -t 25.000000 -s 3 -x 49.280000 -y 49.280000 -U 0.000000 -V 0.000000 -T 0.000000
n -t 25.000000 -s 5 -x 62.494830 -y 62.494830 -U 0.000000 -V 0.000000 -T 0.000000
n -t 25.000000 -s 6 -x 75.247660 -y 75.247660 -U 0.000000 -V 0.000000 -T 0.000000
n -t 25.000000 -s 9 -x 71.535120 -y 71.535120 -U 0.000000 -V 0.000000 -T 0.000000
n -t 26.000000 -s 3 -x 49.280000 -y 49.280000 -U 0.000000 -V 0.000000 -T 0.000000
n -t 26.000000 -s 5 -x 62.494830 -y 62.494830 -U 0.000000 -V 0.000000 -T 0.000000
n -t 26.000000 -s 6 -x 75.247660 -y 75.247660 -U 0.000000 -V 0.000000 -T 0.000000
n -t 26.000000 -s 9 -x 71.535120 -y 71.535120 -U 0.000000 -V 0.000000 -T 0.000000
n -t 27.000000 -s 3 -x 49.280000 -y 49.280000 -U 0.000000 -V 0.000000 -T 0.000000
n -t 27.000000 -s 5 -x 62.494830 -y 62.494830 -U 0.000000 -V 0.000000 -T 0.000000
n -t 27.000000 -s 6 -x 75.247660 -y 75.247660 -U 0.000000 -V 0.000000 -T 0.000000
n -t 27.000000 -s 9 -x 71.535120 -y 71.535120 -U 0.000000 -V 0.000000 -T 0.000000
n -t 28.000000 -s 3 -x 49.280000 -y 49.280000 -U 0.000000 -V 0.000000 -T 0.000000
n -t 28.000000 -s 5 -x 62.494830 -y 62.494830 -U 0.000000 -V 0.000000 -T 0.000000
n -t 28.000000 -s 6 -x 75.247660 -y 75.247660 -U 0.000000 -V 0.000000 -T 0.000000
n -t 28.000000 -s 9 -x 71.535120 -y 71.535120 -U 0.000000 -V 0.000000 -T 0.000000
n -t 29.000000 -s 3 -x 49.280000 -y 49.280000 -U 0.000000 -V 0.000000 -T 0.000000
n -t 29.000000 -s 5 -x 62.494830 -y 62.494830 -U 0.000000 -V 0.000000 -T 0.000000
n -t 29.000000 -s 6 -x 75.247660 -y 75.247660 -U 0.000000 -V 0.000000 -T 0.000000
n -t 29.000000 -s 9 -x 71.535120 -y 71.535120 -U 0.000000 -V 0.000000 -T 0.000000
n -t 30.000000 -s 3 -x 49.280000 -y 49.280000 -U 0.000000 -V 0.000000 -T 0.000000
n -t 30.000000 -s 5 -x 62.494830 -y 62.494830 -U 0.000000 -V 0.000000 -T 0.000000
n -t 30.000000 -s 6 -x 75.247660 -y 75.247660 -U 0.000000 -V 0.000000 -T 0.000000
n -t 30.000000 -s 9 -x 71.535120 -y 71.535120 -U 0.000000 -V 0.000000 -T 0.000000
n -t 31.000000 -s 3 -x 49.280000 -y 49.280000 -U 0.000000 -V 0.000000 -T 0.000000
n -t 31.000000 -s 5 -x 62.494830 -y 62.494830 -U 0.000000 -V 0.000000 -T 0.000000
n -t 31.000000 -s 6 -x 75.247660 -y 75.247660 -U 0.000000 -V 0.000000 -T 0.000000
n -t 31.000000 -s 9 -x 71.535120 -y 71.535120 -U 0.000000 -V 0.000000 -T 0.000000
n -t 32.000000 -s 3 -x 49.280000 -y 49.280000 -U 0.000000 -V 0.000000 -T 0.000000
n -t 32.000000 -s 5 -x 62.494830 -y 62.494830 -U 0.000000 -V 0.000000 -T 0.000000
n -t 32.000000 -s 6 -x 75.247660 -y 75.247660 -U 0.000000 -V 0.000000 -T 0.000000
n -t 32.000000 -s 9 -x 71.535120 -y 71.535120 -U 0.000000 -V 0.000000 -T 0.000000
n -t 33.000000 -s 3 -x 49.280000 -y 49.280000 -U 0.000000 -V 0.000000 -T 0.000000
n -t 33.000000 -s 5 -x 62.494830 -y 62.494830 -U 0.000000 -V 0.000000 -T 0.000000
n -t 33.000000 -s 6 -x 75.247660 -y 75.247660 -U 0.000000 -V 0.000000 -T 0.000000
n -t 33.000000 -s 9 -x 71.535120 -y 71.535120 -U 0.000000 -V 0.000000 -T 0.000000
n -t 34.000000 -s 10 -x 90.624660 -y 90.624660 -U -0.733146 -V -0.733146 -T 81.562623
n -t 34.000000 -s 3 -x 49.280000 -y 49.280000 -U 0.000000 -V 0.000000 -T 0.000000
n -t 34.000000 -s 5 -x 62.494830 -y 62.494830 -U 0.000000 -V 0.000000 -T 0.000000
n -t 34.000000 -s 6 -x 75.247660 -y 75.247660 -U 0.000000 -V 0.000000 -T 0.000000
n -t 34.000000 -s 9 -x 71.535120 -y 71.535120 -U 0.000000 -V 0.000000 -T 0.000000
n -t 35.000000 -s 3 -x 49.280000 -y 49.280000 -U 0.000000 -V 0.000000 -T 0.000000
n -t 35.000000 -s 5 -x 62.494830 -y 62.494830 -U 0.000000 -V 0.000000 -T 0.000000
n -t 35.000000 -s 6 -x 75.247660 -y 75.247660 -U 0.000000 -V 0.000000 -T 0.000000
n -t 35.000000 -s 9 -x 71.535120 -y 71.535120 -U 0.000000 -V 0.000000 -T 0.000000
n -t 36.000000 -s 3 -x 49.280000 -y 49.280000 -U 0.000000 -V 0.000000 -T 0.000000
n -t 36.000000 -s 5 -x 62.494830 -y 62.494830 -U 0.000000 -V 0.000000 -T 0.000000
n -t 36.000000 -s 6 -x 75.247660 -y 75.247660 -U 0.000000 -V 0.000000 -T 0.000000
n -t 36.000000 -s 9 -x 71.535120 -y 71.535120 -U 0.000000 -V 0.000000 -T 0.000000
n -t 37.000000 -s 3 -x 49.280000 -y 49.280000 -U 0.000000 -V 0.000000 -T 0.000000
n -t 37.000000 -s 5 -x 62.494830 -y 62.494830 -U 0.000000 -V 0.000000 -T 0.000000
n -t 37.000000 -s 6 -x 75.247660 -y 75.247660 -U 0.000000 -V 0.000000 -T 0.000000
n -t 37.000000 -s 9 -x 71.535120 -y 71.535120 -U 0.000000 -V 0.000000 -T 0.000000
n -t 38.000000 -s 3 -x 49.280000 -y 49.280000 -U 0.000000 -V 0.000000 -T 0.000000
n -t 38.000000 -s 5 -x 62.494830 -y 62.494830 -U 0.000000 -V 0.000000 -T 0.000000
n -t 38.000000 -s 6 -x 75.247660 -y 75.247660 -U 0.000000 -V 0.000000 -T 0.000000
n -t 38.000000 -s 9 -x 71.535120 -y 71.535120 -U 0.000000 -V 0.000000 -T 0.000000
n -t 39.000000 -s 3 -x 49.280000 -y 49.280000 -U 0.000000 -V 0.000000 -T 0.000000
n -t 39.000000 -s 5 -x 62.494830 -y 62.494830 -U 0.000000 -V 0.000000 -T 0.000000
n -t 39.000000 -s 6 -x 75.247660 -y 75.247660 -U 0.000000 -V 0.000000 -T 0.000000
n -t 39.000000 -s 9 -x 71.535120 -y 71.535120 -U 0.000000 -V 0.000000 -T 0.000000
n -t 40.000000 -s 3 -x 49.280000 -y 49.280000 -U 0.000000 -V 0.000000 -T 0.000000
n -t 40.000000 -s 5 -x 62.494830 -y 62.494830 -U 0.000000 -V 0.000000 -T 0.000000
n -t 40.000000 -s 6 -x 75.247660 -y 75.247660 -U 0.000000 -V 0.000000 -T 0.000000
n -t 40.000000 -s 9 -x 71.535120 -y 71.535120 -U 0.000000 -V 0.000000 -T 0.000000
n -t 41.000000 -s 3 -x 49.280000 -y 49.280000 -U 0.000000 -V 0.000000 -T 0.000000
n -t 41.000000 -s 5 -x 62.494830 -y 62.494830 -U 0.000000 -V 0.000000 -T 0.000000
n -t 41.000000 -s 6 -x 75.247660 -y 75.247660 -U 0.000000 -V 0.000000 -T 0.000000
n -t 41.000000 -s 9 -x 71.535120 -y 71.535120 -U 0.000000 -V 0.000000 -T 0.000000
n -t 42.000000 -s 3 -x 49.280000 -y 49.280000 -U 0.000000 -V 0.000000 -T 0.000000
n -t 42.000000 -s 5 -x 62.494830 -y 62.494830 -U 0.000000 -V 0.000000 -T 0.000000
n -t 42.000000 -s 6 -x 75.247660 -y 75.247660 -U 0.000000 -V 0.000000 -T 0.000000
n -t 42.000000 -s 9 -x 71.535120 -y 71.535120 -U 0.000000 -V 0.000000 -T 0.000000
n -t 43.000000 -s 3 -x 49.280000 -y 49.280000 -U 0.000000 -V 0.000000 -T 0.000000
n -t 43.000000 -s 5 -x 62.494830 -y 62.494830 -U 0.000000 -V 0.000000 -T 0.000000
n -t 43.000000 -s 6 -x 75.247660 -y 75.247660 -U 0.000000 -V 0.000000 -T 0.000000
n -t 43.000000 -s 9 -x 71.535120 -y 71.535120 -U 0.000000 -V 0.000000 -T 0.000000
n -t 44.000000 -s 3 -x 49.280000 -y 49.280000 -U 0.000000 -V 0.000000 -T 0.000000
n -t 44.000000 -s 5 -x 62.494830 -y 62.494830 -U 0.000000 -V 0.000000 -T 0.000000
n -t 44.000000 -s 6 -x 75.247660 -y 75.247660 -U 0.000000 -V 0.000000 -T 0.000000
n -t 44.000000 -s 9 -x 71.535120 -y 71.535120 -U 0.000000 -V 0.000000 -T 0.000000
n -t 45.000000 -s 3 -x 49.280000 -y 49.280000 -U 0.000000 -V 0.000000 -T 0.000000
n -t 45.000000 -s 5 -x 62.494830 -y 62.494830 -U 0.000000 -V 0.000000 -T 0.000000
n -t 45.000000 -s 6 -x 75.247660 -y 75.247660 -U 0.000000 -V 0.000000 -T 0.000000
n -t 45.000000 -s 9 -x 71.535120 -y 71.535120 -U 0.000000 -V 0.000000 -T 0.000000
n -t 46.000000 -s 1 -x 89.095300 -y 89.095300 -U 0.000000 -V 0.000000 -T 0.000000
n -t 46.000000 -s 3 -x 49.280000 -y 49.280000 -U 0.000000 -V 0.000000 -T 0.000000
n -t 46.000000 -s 5 -x 62.494830 -y 62.494830 -U 0.000000 -V 0.000000 -T 0.000000
n -t 46.000000 -s 9 -x 71.535120 -y 71.535120 -U 0.000000 -V 0.000000 -T 0.000000
n -t 47.000000 -s 1 -x 89.095300 -y 89.095300 -U 0.000000 -V 0.000000 -T 0.000000
n -t 47.000000 -s 3 -x 49.280000 -y 49.280000 -U 0.000000 -V 0.000000 -T 0.000000
n -t 47.000000 -s 5 -x 62.494830 -y 62.494830 -U 0.000000 -V 0.000000 -T 0.000000
n -t 47.000000 -s 9 -x 71.535120 -y 71.535120 -U 0.000000 -V 0.000000 -T 0.000000
n -t 48.000000 -s 1 -x 89.095300 -y 89.095300 -U 0.000000 -V 0.000000 -T 0.000000
n -t 48.000000 -s 3 -x 49.280000 -y 49.280000 -U 0.000000 -V 0.000000 -T 0.000000
n -t 48.000000 -s 5 -x 62.494830 -y 62.494830 -U 0.000000 -V 0.000000 -T 0.000000
n -t 48.000000 -s 9 -x 71.535120 -y 71.535120 -U 0.000000 -V 0.000000 -T 0.000000
n -t 49.000000 -s 1 -x 89.095300 -y 89.095300 -U 0.000000 -V 0.000000 -T 0.000000
n -t 49.000000 -s 3 -x 49.280000 -y 49.280000 -U 0.000000 -V 0.000000 -T 0.000000
n -t 49.000000 -s 5 -x 62.494830 -y 62.494830 -U 0.000000 -V 0.000000 -T 0.000000
n -t 49.000000 -s 9 -x 71.535120 -y 71.535120 -U 0.000000 -V 0.000000 -T 0.000000
n -t 50.000000 -s 1 -x 89.095300 -y 89.095300 -U 0.000000 -V 0.000000 -T 0.000000
n -t 50.000000 -s 3 -x 49.280000 -y 49.280000 -U 0.000000 -V 0.000000 -T 0.000000
n -t 50.000000 -s 5 -x 62.494830 -y 62.494830 -U 0.000000 -V 0.000000 -T 0.000000
n -t 50.000000 -s 9 -x 71.535120 -y 71.535120 -U 0.000000 -V 0.000000 -T 0.000000
n -t 51.000000 -s 1 -x 89.095300 -y 89.095300 -U 0.000000 -V 0.000000 -T 0.000000
n -t 51.000000 -s 3 -x 49.280000 -y 49.280000 -U 0.000000 -V 0.000000 -T 0.000000
n -t 51.000000 -s 5 -x 62.494830 -y 62.494830 -U 0.000000 -V 0.000000 -T 0.000000
n -t 51.000000 -s 9 -x 71.535120 -y 71.535120 -U 0.000000 -V 0.000000 -T 0.000000
n -t 52.000000 -s 1 -x 89.095300 -y 89.095300 -U 0.000000 -V 0.000000 -T 0.000000
n -t 52.000000 -s 3 -x 49.280000 -y 49.280000 -U 0.000000 -V 0.000000 -T 0.000000
n -t 52.000000 -s 5 -x 62.494830 -y 62.494830 -U 0.000000 -V 0.000000 -T 0.000000
n -t 52.000000 -s 9 -x 71.535120 -y 71.535120 -U 0.000000 -V 0.000000 -T 0.000000
n -t 53.000000 -s 1 -x 89.095300 -y 89.095300 -U 0.000000 -V 0.000000 -T 0.000000
n -t 53.000000 -s 3 -x 49.280000 -y 49.280000 -U 0.000000 -V 0.000000 -T 0.000000
n -t 53.000000 -s 5 -x 62.494830 -y 62.494830 -U 0.000000 -V 0.000000 -T 0.000000
n -t 53.000000 -s 9 -x 71.535120 -y 71.535120 -U 0.000000 -V 0.000000 -T 0.000000
n -t 54.000000 -s 1 -x 89.095300 -y 89.095300 -U 0.000000 -V 0.000000 -T 0.000000
n -t 54.000000 -s 3 -x 49.280000 -y 49.280000 -U 0.000000 -V 0.000000 -T 0.000000
n -t 54.000000 -s 5 -x 62.494830 -y 62.494830 -U 0.000000 -V 0.000000 -T 0.000000
n -t 54.000000 -s 9 -x 71.535120 -y 71.535120 -U 0.000000 -V 0.000000 -T 0.000000
n -t 55.000000 -s 1 -x 89.095300 -y 89.095300 -U 0.000000 -V 0.000000 -T 0.000000
n -t 55.000000 -s 3 -x 49.280000 -y 49.280000 -U 0.000000 -V 0.000000 -T 0.000000
n -t 55.000000 -s 5 -x 62.494830 -y 62.494830 -U 0.000000 -V 0.000000 -T 0.000000
n -t 55.000000 -s 9 -x 71.535120 -y 71.535120 -U 0.000000 -V 0.000000 -T 0.000000
n -t 56.000000 -s 1 -x 89.095300 -y 89.095300 -U 0.000000 -V 0.000000 -T 0.000000
n -t 56.000000 -s 3 -x 49.280000 -y 49.280000 -U 0.000000 -V 0.000000 -T 0.000000
n -t 56.000000 -s 5 -x 62.494830 -y 62.494830 -U 0.000000 -V 0.000000 -T 0.000000
n -t 56.000000 -s 9 -x 71.535120 -y 71.535120 -U 0.000000 -V 0.000000 -T 0.000000
n -t 57.000000 -s 1 -x 89.095300 -y 89.095300 -U 0.000000 -V 0.000000 -T 0.000000
n -t 57.000000 -s 3 -x 49.280000 -y 49.280000 -U 0.000000 -V 0.000000 -T 0.000000
n -t 57.000000 -s 5 -x 62.494830 -y 62.494830 -U 0.000000 -V 0.000000 -T 0.000000
n -t 57.000000 -s 9 -x 71.535120 -y 71.535120 -U 0.000000 -V 0.000000 -T 0.000000
n -t 58.000000 -s 1 -x 89.095300 -y 89.095300 -U 0.000000 -V 0.000000 -T 0.000000
n -t 58.000000 -s 3 -x 49.280000 -y 49.280000 -U 0.000000 -V 0.000000 -T 0.000000
n -t 58.000000 -s 5 -x 62.494830 -y 62.494830 -U 0.000000 -V 0.000000 -T 0.000000
n -t 58.000000 -s 6 -x 75.247660 -y 75.247660 -U 0.000000 -V 0.000000 -T 0.000000
n -t 59.000000 -s 1 -x 89.095300 -y 89.095300 -U 0.000000 -V 0.000000 -T 0.000000
n -t 59.000000 -s 3 -x 49.280000 -y 49.280000 -U 0.000000 -V 0.000000 -T 0.000000
n -t 59.000000 -s 5 -x 62.494830 -y 62.494830 -U 0.000000 -V 0.000000 -T 0.000000
n -t 59.000000 -s 6 -x 75.247660 -y 75.247660 -U 0.000000 -V 0.000000 -T 0.000000
n -t 60.000000 -s 1 -x 89.095300 -y 89.095300 -U 0.000000 -V 0.000000 -T 0.000000
n -t 60.000000 -s 3 -x 49.280000 -y 49.280000 -U 0.000000 -V 0.000000 -T 0.000000
n -t 60.000000 -s 5 -x 62.494830 -y 62.494830 -U 0.000000 -V 0.000000 -T 0.000000
n -t 60.000000 -s 6 -x 75.247660 -y 75.247660 -U 0.000000 -V 0.000000 -T 0.000000
n -t 61.000000 -s 1 -x 89.095300 -y 89.095300 -U 0.000000 -V 0.000000 -T 0.000000
n -t 61.000000 -s 3 -x 49.280000 -y 49.280000 -U 0.000000 -V 0.000000 -T 0.000000
n -t 61.000000 -s 5 -x 62.494830 -y 62.494830 -U 0.000000 -V 0.000000 -T 0.000000
n -t 61.000000 -s 6 -x 75.247660 -y 75.247660 -U 0.000000 -V 0.000000 -T 0.000000
n -t 62.000000 -s 1 -x 89.095300 -y 89.095300 -U 0.000000 -V 0.000000 -T 0.000000
n -t 62.000000 -s 3 -x 49.280000 -y 49.280000 -U 0.000000 -V 0.000000 -T 0.000000
n -t 62.000000 -s 5 -x 62.494830 -y 62.494830 -U 0.000000 -V 0.000000 -T 0.000000
n -t 62.000000 -s 6 -x 75.247660 -y 75.247660 -U 0.000000 -V 0.000000 -T 0.000000
n -t 63.000000 -s 1 -x 89.095300 -y 89.095300 -U 0.000000 -V 0.000000 -T 0.000000
n -t 63.000000 -s 3 -x 49.280000 -y 49.280000 -U 0.000000 -V 0.000000 -T 0.000000
n -t 63.000000 -s 5 -x 62.494830 -y 62.494830 -U 0.000000 -V 0.000000 -T 0.000000
n -t 63.000000 -s 6 -x 75.247660 -y 75.247660 -U 0.000000 -V 0.000000 -T 0.000000
n -t 64.000000 -s 1 -x 89.095300 -y 89.095300 -U 0.000000 -V 0.000000 -T 0.000000
n -t 64.000000 -s 3 -x 49.280000 -y 49.280000 -U 0.000000 -V 0.000000 -T 0.000000
n -t 64.000000 -s 5 -x 62.494830 -y 62.494830 -U 0.000000 -V 0.000000 -T 0.000000
n -t 64.000000 -s 6 -x 75.247660 -y 75.247660 -U 0.000000 -V 0.000000 -T 0.000000
n -t 65.000000 -s 1 -x 89.095300 -y 89.095300 -U 0.000000 -V 0.000000 -T 0.000000
n -t 65.000000 -s 3 -x 49.280000 -y 49.280000 -U 0.000000 -V 0.000000 -T 0.000000
n -t 65.000000 -s 5 -x 62.494830 -y 62.494830 -U 0.000000 -V 0.000000 -T 0.000000
n -t 65.000000 -s 6 -x 75.247660 -y 75.247660 -U 0.000000 -V 0.000000 -T 0.000000
n -t 66.000000 -s 1 -x 89.095300 -y 89.095300 -U 0.000000 -V 0.000000 -T 0.000000
n -t 66.000000 -s 3 -x 49.280000 -y 49.280000 -U 0.000000 -V 0.000000 -T 0.000000
n -t 66.000000 -s 5 -x 62.494830 -y 62.494830 -U 0.000000 -V 0.000000 -T 0.000000
n -t 66.000000 -s 6 -x 75.247660 -y 75.247660 -U 0.000000 -V 0.000000 -T 0.000000
n -t 67.000000 -s 1 -x 89.095300 -y 89.095300 -U 0.000000 -V 0.000000 -T 0.000000
n -t 67.000000 -s 3 -x 49.280000 -y 49.280000 -U 0.000000 -V 0.000000 -T 0.000000
n -t 67.000000 -s 6 -x 75.247660 -y 75.247660 -U 0.000000 -V 0.000000 -T 0.000000
n -t 67.000000 -s 9 -x 71.535120 -y 71.535120 -U 0.000000 -V 0.000000 -T 0.000000
n -t 68.000000 -s 1 -x 89.095300 -y 89.095300 -U 0.000000 -V 0.000000 -T 0.000000
n -t 68.000000 -s 3 -x 49.280000 -y 49.280000 -U 0.000000 -V 0.000000 -T 0.000000
n -t 68.000000 -s 6 -x 75.247660 -y 75.247660 -U 0.000000 -V 0.000000 -T 0.000000
n -t 68.000000 -s 9 -x 71.535120 -y 71.535120 -U 0.000000 -V 0.000000 -T 0.000000
n -t 69.000000 -s 1 -x 89.095300 -y 89.095300 -U 0.000000 -V 0.000000 -T 0.000000
n -t 69.000000 -s 3 -x 49.280000 -y 49.280000 -U 0.000000 -V 0.000000 -T 0.000000
n -t 69.000000 -s 6 -x 75.247660 -y 75.247660 -U 0.000000 -V 0.000000 -T 0.000000
n -t 69.000000 -s 9 -x 71.535120 -y 71.535120 -U 0.000000 -V 0.000000 -T 0.000000
n -t 70.000000 -s 1 -x 89.095300 -y 89.095300 -U 0.000000 -V 0.000000 -T 0.000000
n -t 70.000000 -s 3 -x 49.280000 -y 49.280000 -U 0.000000 -V 0.000000 -T 0.000000
n -t 70.000000 -s 6 -x 75.247660 -y 75.247660 -U 0.000000 -V 0.000000 -T 0.000000
n -t 70.000000 -s 9 -x 71.535120 -y 71.535120 -U 0.000000 -V 0.000000 -T 0.000000
n -t 71.000000 -s 1 -x 89.095300 -y 89.095300 -U 0.000000 -V 0.000000 -T 0.000000
n -t 71.000000 -s 3 -x 49.280000 -y 49.280000 -U 0.000000 -V 0.000000 -T 0.000000
n -t 71.000000 -s 6 -x 75.247660 -y 75.247660 -U 0.000000 -V 0.000000 -T 0.000000
n -t 71.000000 -s 9 -x 71.535120 -y 71.535120 -U 0.000000 -V 0.000000 -T 0.000000
n -t 72.000000 -s 1 -x 89.095300 -y 89.095300 -U 0.000000 -V 0.000000 -T 0.000000
n -t 72.000000 -s 3 -x 49.280000 -y 49.280000 -U 0.000000 -V 0.000000 -T 0.000000
n -t 72.000000 -s 6 -x 75.247660 -y 75.247660 -U 0.000000 -V 0.000000 -T 0.000000
n -t 72.000000 -s 9 -x 71.535120 -y 71.535120 -U 0.000000 -V 0.000000 -T 0.000000
n -t 73.000000 -s 1 -x 89.095300 -y 89.095300 -U 0.000000 -V 0.000000 -T 0.000000
n -t 73.000000 -s 3 -x 49.280000 -y 49.280000 -U 0.000000 -V 0.000000 -T 0.000000
n -t 73.000000 -s 6 -x 75.247660 -y 75.247660 -U 0.000000 -V 0.000000 -T 0.000000
n -t 73.000000 -s 9 -x 71.535120 -y 71.535120 -U 0.000000 -V 0.000000 -T 0.000000
n -t 74.000000 -s 1 -x 89.095300 -y 89.095300 -U 0.000000 -V 0.000000 -T 0.000000
n -t 74.000000 -s 3 -x 49.280000 -y 49.280000 -U 0.000000 -V 0.000000 -T 0.000000
n -t 74.000000 -s 6 -x 75.247660 -y 75.247660 -U 0.000000 -V 0.000000 -T 0.000000
n -t 74.000000 -s 9 -x 71.535120 -y 71.535120 -U 0.000000 -V 0.000000 -T 0.000000
n -t 75.000000 -s 1 -x 89.095300 -y 89.095300 -U 0.000000 -V 0.000000 -T 0.000000
n -t 75.000000 -s 3 -x 49.280000 -y 49.280000 -U 0.000000 -V 0.000000 -T 0.000000
n -t 75.000000 -s 6 -x 75.247660 -y 75.247660 -U 0.000000 -V 0.000000 -T 0.000000
n -t 75.000000 -s 9 -x 71.535120 -y 71.535120 -U 0.000000 -V 0.000000 -T 0.000000
n -t 76.000000 -s 1 -x 89.095300 -y 89.095300 -U 0.000000 -V 0.000000 -T 0.000000
n -t 76.000000 -s 3 -x 49.280000 -y 49.280000 -U 0.000000 -V 0.000000 -T 0.000000
n -t 76.000000 -s 6 -x 75.247660 -y 75.247660 -U 0.000000 -V 0.000000 -T 0.000000
n -t 76.000000 -s 9 -x 71.535120 -y 71.535120 -U 0.000000 -V 0.000000 -T 0.000000
n -t 77.000000 -s 1 -x 89.095300 -y 89.095300 -U 0.000000 -V 0.000000 -T 0.000000
n -t 77.000000 -s 3 -x 49.280000 -y 49.280000 -U 0.000000 -V 0.000000 -T 0.000000
n -t 77.000000 -s 6 -x 75.247660 -y 75.247660 -U 0.000000 -V 0.000000 -T 0.000000
n -t 77.000000 -s 9 -x 71.535120 -y 71.535120 -U 0.000000 -V 0.000000 -T 0.000000
n -t 78.000000 -s 1 -x 89.095300 -y 89.095300 -U 0.000000 -V 0.000000 -T 0.000000
n -t 78.000000 -s 3 -x 49.280000 -y 49.280000 -U 0.000000 -V 0.000000 -T 0.000000
n -t 78.000000 -s 6 -x 75.247660 -y 75.247660 -U 0.000000 -V 0.000000 -T 0.000000
n -t 78.000000 -s 9 -x 71.535120 -y 71.535120 -U 0.000000 -V 0.000000 -T 0.000000
n -t 79.000000 -s 1 -x 89.095300 -y 89.095300 -U 0.000000 -V 0.000000 -T 0.000000
n -t 79.000000 -s 3 -x 49.280000 -y 49.280000 -U 0.000000 -V 0.000000 -T 0.000000
n -t 79.000000 -s 6 -x 75.247660 -y 75.247660 -U 0.000000 -V 0.000000 -T 0.000000
n -t 79.000000 -s 9 -x 71.535120 -y 71.535120 -U 0.000000 -V 0.000000 -T 0.000000
n -t 80.000000 -s 1 -x 89.095300 -y 89.095300 -U 0.000000 -V 0.000000 -T 0.000000
n -t 80.000000 -s 3 -x 49.280000 -y 49.280000 -U 0.000000 -V 0.000000 -T 0.000000
n -t 80.000000 -s 6 -x 75.247660 -y 75.247660 -U 0.000000 -V 0.000000 -T 0.000000
n -t 80.000000 -s 9 -x 71.535120 -y 71.535120 -U 0.000000 -V 0.000000 -T 0.000000
n -t 81.000000 -s 1 -x 89.095300 -y 89.095300 -U 0.000000 -V 0.000000 -T 0.000000
n -t 81.000000 -s 3 -x 49.280000 -y 49.280000 -U 0.000000 -V 0.000000 -T 0.000000
n -t 81.000000 -s 6 -x 75.247660 -y 75.247660 -U 0.000000 -V 0.000000 -T 0.000000
n -t 81.000000 -s 9 -x 71.535120 -y 71.535120 -U 0.000000 -V 0.000000 -T 0.000000
n -t 82.000000 -s 1 -x 89.095300 -y 89.095300 -U 0.000000 -V 0.000000 -T 0.000000
n -t 82.000000 -s 5 -x 62.494830 -y 62.494830 -U 0.000000 -V 0.000000 -T 0.000000
n -t 82.000000 -s 6 -x 75.247660 -y 75.247660 -U 0.000000 -V 0.000000 -T 0.000000
n -t 82.000000 -s 9 -x 71.535120 -y 71.535120 -U 0.000000 -V 0.000000 -T 0.000000
n -t 83.000000 -s 1 -x 89.095300 -y 89.095300 -U 0.000000 -V 0.000000 -T 0.000000
n -t 83.000000 -s 5 -x 62.494830 -y 62.494830 -U 0.000000 -V 0.000000 -T 0.000000
n -t 83.000000 -s 6 -x 75.247660 -y 75.247660 -U 0.000000 -V 0.000000 -T 0.000000
n -t 83.000000 -s 9 -x 71.535120 -y 71.535120 -U 0.000000 -V 0.000000 -T 0.000000
n -t 84.000000 -s 1 -x 89.095300 -y 89.095300 -U 0.000000 -V 0.000000 -T 0.000000
n -t 84.000000 -s 5 -x 62.494830 -y 62.494830 -U 0.000000 -V 0.000000 -T 0.000000
n -t 84.000000 -s 6 -x 75.247660 -y 75.247660 -U 0.000000 -V 0.000000 -T 0.000000
n -t 84.000000 -s 9 -x 71.535120 -y 71.535120 -U 0.000000 -V 0.000000 -T 0.000000
n -t 85.000000 -s 1 -x 89.095300 -y 89.095300 -U 0.000000 -V 0.000000 -T 0.000000
n -t 85.000000 -s 5 -x 62.494830 -y 62.494830 -U 0.000000 -V 0.000000 -T 0.000000
n -t 85.000000 -s 6 -x 75.247660 -y 75.247660 -U 0.000000 -V 0.000000 -T 0.000000
n -t 85.000000 -s 9 -x 71.535120 -y 71.535120 -U 0.000000 -V 0.000000 -T 0.000000
n -t 86.000000 -s 1 -x 89.095300 -y 89.095300 -U 0.000000 -V 0.000000 -T 0.000000
n -t 86.000000 -s 5 -x 62.494830 -y 62.494830 -U 0.000000 -V 0.000000 -T 0.000000
n -t 86.000000 -s 6 -x 75.247660 -y 75.247660 -U 0.000000 -V 0.000000 -T 0.000000