n -t * -s 0  -x 61.331009999999999 -y 1.153551 -Z 0 -z 1  -v circle -c black
n -t * -s 1  -x 40.881030000000003 -y 26.685559999999999 -Z 0 -z 1  -v circle -c black
n -t * -s 2  -x 10.82437 -y 18.525020000000001 -Z 0 -z 1  -v circle -c black
n -t * -s 3  -x 14.91259 -y 46.7913 -Z 0 -z 1  -v circle -c black
n -t * -s 4  -x 4.97323 -y 38.542310000000001 -Z 0 -z 1  -v circle -c black
n -t * -s 5  -x 63.112900000000003 -y 26.85305 -Z 0 -z 1  -v circle -c black
n -t * -s 6  -x 61.120809999999999 -y 56.065010000000001 -Z 0 -z 1  -v circle -c black
n -t * -s 7  -x 85.031120000000001 -y 24.529330000000002 -Z 0 -z 1  -v circle -c black
n -t * -s 8  -x 84.361109999999996 -y 54.053780000000003 -Z 0 -z 1  -v circle -c black
n -t * -s 9  -x 89.906170000000003 -y 93.540800000000004 -Z 0 -z 1  -v circle -c black
n -t * -s 10  -x 30.63204 -y 7.4204689999999998 -Z 0 -z 2  -v circle -c black
V -t * -v 1.0a5 -a 0
W -t * -x 100 -y 100
A -t * -n 1 -p 0 -o 0x7fffffff -c 30 -a 1
A -t * -h 1 -m 1073741823 -s 0
n -t 0 -s 10 -S COLOR -c red -o black -i red -I black
n -t 0.000000 -s 10 -x 30.632040 -y 7.420469 -U -1.399953 -V 0.704665 -T 14.892066
n -t 0.000000 -s 0 -x 61.331010 -y 1.153551 -U -0.979793 -V 0.200016 -T 23.832108
n -t 0.000000 -s 1 -x 40.881030 -y 26.685560 -U -0.469670 -V -0.882842 -T 14.321676
n -t 0.000000 -s 2 -x 10.824370 -y 18.525020 -U 0.872276 -V -0.489014 -T 15.208035
n -t 0.000000 -s 3 -x 14.912590 -y 46.791300 -U 0.370803 -V -0.928711 -T 34.892965
n -t 0.000000 -s 4 -x 4.973230 -y 38.542310 -U 0.636136 -V -0.771577 -T 32.835388
n -t 0.000000 -s 5 -x 63.112900 -y 26.853050 -U -0.858144 -V -0.513409 -T 30.350119
n -t 0.000000 -s 6 -x 61.120810 -y 56.065010 -U -0.531075 -V -0.847325 -T 49.909550
n -t 0.000000 -s 7 -x 85.031120 -y 24.529330 -U -0.953933 -V -0.300018 -T 49.526073
n -t 1.000000 -s 0 -x 60.351217 -y 1.353567 -U -0.977134 -V 0.212626 -T 24.347361
n -t 1.000000 -s 1 -x 40.411360 -y 25.802718 -U -0.534488 -V -0.845176 -T 13.415858
n -t 1.000000 -s 2 -x 11.696646 -y 18.036006 -U 0.870573 -V -0.492040 -T 12.642420
n -t 1.000000 -s 3 -x 15.283393 -y 45.862589 -U 0.346699 -V -0.937976 -T 32.732842
n -t 1.000000 -s 4 -x 5.609366 -y 37.770733 -U 0.623186 -V -0.782074 -T 30.406392
n -t 1.000000 -s 5 -x 62.254756 -y 26.339641 -U -0.875633 -V -0.482978 -T 30.212928
n -t 1.000000 -s 6 -x 60.589735 -y 55.217685 -U -0.554243 -V -0.832355 -T 49.077473
n -t 1.000000 -s 7 -x 84.077187 -y 24.229312 -U -0.959492 -V -0.281736 -T 49.660559
n -t 2.000000 -s 0 -x 59.374084 -y 1.566193 -U -0.974495 -V 0.224411 -T 24.867492
n -t 2.000000 -s 1 -x 39.876872 -y 24.957542 -U -0.598375 -V -0.801216 -T 12.629079
n -t 2.000000 -s 2 -x 12.567219 -y 17.543966 -U 0.868455 -V -0.495768 -T 10.077098
n -t 2.000000 -s 3 -x 15.630092 -y 44.924612 -U 0.320251 -V -0.947333 -T 30.601515
n -t 2.000000 -s 4 -x 6.232552 -y 36.988660 -U 0.608629 -V -0.793455 -T 27.988920
n -t 2.000000 -s 5 -x 61.379123 -y 25.856663 -U -0.891717 -V -0.452593 -T 30.120667
n -t 2.000000 -s 6 -x 60.035492 -y 54.385330 -U -0.577240 -V -0.816575 -T 48.288554
n -t 2.000000 -s 7 -x 83.117695 -y 23.947576 -U -0.964587 -V -0.263765 -T 49.815272
n -t 3.000000 -s 0 -x 58.399589 -y 1.790603 -U -0.971891 -V 0.235433 -T 25.391982
n -t 3.000000 -s 1 -x 39.278497 -y 24.156326 -U -0.660022 -V -0.751246 -T 11.963471
n -t 3.000000 -s 2 -x 13.435673 -y 17.048198 -U 0.865731 -V -0.500509 -T 7.512176
n -t 3.000000 -s 3 -x 15.950343 -y 43.977279 -U 0.291142 -V -0.956680 -T 28.502452
n -t 3.000000 -s 4 -x 6.841181 -y 36.195204 -U 0.592145 -V -0.805831 -T 25.584777
n -t 3.000000 -s 5 -x 60.487406 -y 25.404070 -U -0.906416 -V -0.422386 -T 30.071302
n -t 3.000000 -s 6 -x 59.458253 -y 53.568755 -U -0.600004 -V -0.799997 -T 47.543077
n -t 3.000000 -s 7 -x 82.153108 -y 23.683811 -U -0.969239 -V -0.246121 -T 49.989352
n -t 4.000000 -s 0 -x 57.427698 -y 2.026036 -U -0.969333 -V 0.245751 -T 25.920373
n -t 4.000000 -s 1 -x 38.618475 -y 23.405079 -U -0.718127 -V -0.695912 -T 11.418995
n -t 4.000000 -s 2 -x 14.301404 -y 16.547688 -U 0.862064 -V -0.506800 -T 4.947833
n -t 4.000000 -s 3 -x 16.241486 -y 43.020600 -U 0.259011 -V -0.965874 -T 26.439683
n -t 4.000000 -s 4 -x 7.433326 -y 35.389373 -U 0.573325 -V -0.819328 -T 23.196193
n -t 4.000000 -s 5 -x 59.580990 -y 24.981684 -U -0.919761 -V -0.392478 -T 30.062746
n -t 4.000000 -s 6 -x 58.858249 -y 52.768758 -U -0.622474 -V -0.782640 -T 46.841229
n -t 4.000000 -s 7 -x 81.183869 -y 23.437689 -U -0.973470 -V -0.228816 -T 50.181961
n -t 4.000000 -s 0 -x 57.427698 -y 2.026036 -U 0.000000 -V 0.000000 -T 0.000000
n -t 4.000000 -s 1 -x 38.618475 -y 23.405079 -U 0.000000 -V 0.000000 -T 0.000000
n -t 4.000000 -s 3 -x 16.241486 -y 43.020600 -U 0.000000 -V 0.000000 -T 0.000000
n -t 4.000000 -s 4 -x 7.433326 -y 35.389373 -U 0.000000 -V 0.000000 -T 0.000000
n -t 4.000000 -s 5 -x 59.580990 -y 24.981684 -U 0.000000 -V 0.000000 -T 0.000000
n -t 4.000000 -s 6 -x 58.858249 -y 52.768758 -U 0.000000 -V 0.000000 -T 0.000000
n -t 4.000000 -s 7 -x 81.183869 -y 23.437689 -U 0.000000 -V 0.000000 -T 0.000000
n -t 5.000000 -s 0 -x 57.427698 -y 2.026036 -U 0.000000 -V 0.000000 -T 0.000000
n -t 5.000000 -s 1 -x 38.618475 -y 23.405079 -U 0.000000 -V 0.000000 -T 0.000000
n -t 5.000000 -s 3 -x 16.241486 -y 43.020600 -U 0.000000 -V 0.000000 -T 0.000000
n -t 5.000000 -s 4 -x 7.433326 -y 35.389373 -U 0.000000 -V 0.000000 -T 0.000000
n -t 5.000000 -s 5 -x 59.580990 -y 24.981684 -U 0.000000 -V 0.000000 -T 0.000000
n -t 5.000000 -s 6 -x 58.858249 -y 52.768758 -U 0.000000 -V 0.000000 -T 0.000000
n -t 5.000000 -s 7 -x 81.183869 -y 23.437689 -U 0.000000 -V 0.000000 -T 0.000000
n -t 6.000000 -s 0 -x 57.427698 -y 2.026036 -U 0.000000 -V 0.000000 -T 0.000000
n -t 6.000000 -s 1 -x 38.618475 -y 23.405079 -U 0.000000 -V 0.000000 -T 0.000000
n -t 6.000000 -s 3 -x 16.241486 -y 43.020600 -U 0.000000 -V 0.000000 -T 0.000000
n -t 6.000000 -s 4 -x 7.433326 -y 35.389373 -U 0.000000 -V 0.000000 -T 0.000000
n -t 6.000000 -s 5 -x 59.580990 -y 24.981684 -U 0.000000 -V 0.000000 -T 0.000000
n -t 6.000000 -s 6 -x 58.858249 -y 52.768758 -U 0.000000 -V 0.000000 -T 0.000000
n -t 6.000000 -s 7 -x 81.183869 -y 23.437689 -U 0.000000 -V 0.000000 -T 0.000000
n -t 7.000000 -s 0 -x 57.427698 -y 2.026036 -U 0.000000 -V 0.000000 -T 0.000000
n -t 7.000000 -s 1 -x 38.618475 -y 23.405079 -U 0.000000 -V 0.000000 -T 0.000000
n -t 7.000000 -s 3 -x 16.241486 -y 43.020600 -U 0.000000 -V 0.000000 -T 0.000000
n -t 7.000000 -s 4 -x 7.433326 -y 35.389373 -U 0.000000 -V 0.000000 -T 0.000000
n -t 7.000000 -s 5 -x 59.580990 -y 24.981684 -U 0.000000 -V 0.000000 -T 0.000000
n -t 7.000000 -s 6 -x 58.858249 -y 52.768758 -U 0.000000 -V 0.000000 -T 0.000000
n -t 7.000000 -s 7 -x 81.183869 -y 23.437689 -U 0.000000 -V 0.000000 -T 0.000000
n -t 8.000000 -s 0 -x 57.427698 -y 2.026036 -U 0.000000 -V 0.000000 -T 0.000000
n -t 8.000000 -s 1 -x 38.618475 -y 23.405079 -U 0.000000 -V 0.000000 -T 0.000000
n -t 8.000000 -s 3 -x 16.241486 -y 43.020600 -U 0.000000 -V 0.000000 -T 0.000000
n -t 8.000000 -s 4 -x 7.433326 -y 35.389373 -U 0.000000 -V 0.000000 -T 0.000000
n -t 8.000000 -s 5 -x 59.580990 -y 24.981684 -U 0.000000 -V 0.000000 -T 0.000000
n -t 8.000000 -s 6 -x 58.858249 -y 52.768758 -U 0.000000 -V 0.000000 -T 0.000000
n -t 8.000000 -s 7 -x 81.183869 -y 23.437689 -U 0.000000 -V 0.000000 -T 0.000000
n -t 9.000000 -s 0 -x 57.427698 -y 2.026036 -U 0.000000 -V 0.000000 -T 0.000000
n -t 9.000000 -s 1 -x 38.618475 -y 23.405079 -U 0.000000 -V 0.000000 -T 0.000000
n -t 9.000000 -s 3 -x 16.241486 -y 43.020600 -U 0.000000 -V 0.000000 -T 0.000000
n -t 9.000000 -s 4 -x 7.433326 -y 35.389373 -U 0.000000 -V 0.000000 -T 0.000000
n -t 9.000000 -s 5 -x 59.580990 -y 24.981684 -U 0.000000 -V 0.000000 -T 0.000000
n -t 9.000000 -s 6 -x 58.858249 -y 52.768758 -U 0.000000 -V 0.000000 -T 0.000000
n -t 9.000000 -s 7 -x 81.183869 -y 23.437689 -U 0.000000 -V 0.000000 -T 0.000000
n -t 10.000000 -s 0 -x 57.427698 -y 2.026036 -U 0.000000 -V 0.000000 -T 0.000000
n -t 10.000000 -s 1 -x 38.618475 -y 23.405079 -U 0.000000 -V 0.000000 -T 0.000000
n -t 10.000000 -s 3 -x 16.241486 -y 43.020600 -U 0.000000 -V 0.000000 -T 0.000000
n -t 10.000000 -s 4 -x 7.433326 -y 35.389373 -U 0.000000 -V 0.000000 -T 0.000000
n -t 10.000000 -s 5 -x 59.580990 -y 24.981684 -U 0.000000 -V 0.000000 -T 0.000000
n -t 10.000000 -s 6 -x 58.858249 -y 52.768758 -U 0.000000 -V 0.000000 -T 0.000000
n -t 10.000000 -s 7 -x 81.183869 -y 23.437689 -U 0.000000 -V 0.000000 -T 0.000000
n -t 11.000000 -s 0 -x 57.427698 -y 2.026036 -U 0.000000 -V 0.000000 -T 0.000000
n -t 11.000000 -s 1 -x 38.618475 -y 23.405079 -U 0.000000 -V 0.000000 -T 0.000000
n -t 11.000000 -s 3 -x 16.241486 -y 43.020600 -U 0.000000 -V 0.000000 -T 0.000000
n -t 11.000000 -s 4 -x 7.433326 -y 35.389373 -U 0.000000 -V 0.000000 -T 0.000000
n -t 11.000000 -s 5 -x 59.580990 -y 24.981684 -U 0.000000 -V 0.000000 -T 0.000000
n -t 11.000000 -s 6 -x 58.858249 -y 52.768758 -U 0.000000 -V 0.000000 -T 0.000000
n -t 11.000000 -s 7 -x 81.183869 -y 23.437689 -U 0.000000 -V 0.000000 -T 0.000000
n -t 12.000000 -s 0 -x 57.427698 -y 2.026036 -U 0.000000 -V 0.000000 -T 0.000000
n -t 12.000000 -s 1 -x 38.618475 -y 23.405079 -U 0.000000 -V 0.000000 -T 0.000000
n -t 12.000000 -s 3 -x 16.241486 -y 43.020600 -U 0.000000 -V 0.000000 -T 0.000000
n -t 12.000000 -s 4 -x 7.433326 -y 35.389373 -U 0.000000 -V 0.000000 -T 0.000000
n -t 12.000000 -s 5 -x 59.580990 -y 24.981684 -U 0.000000 -V 0.000000 -T 0.000000
n -t 12.000000 -s 6 -x 58.858249 -y 52.768758 -U 0.000000 -V 0.000000 -T 0.000000
n -t 12.000000 -s 7 -x 81.183869 -y 23.437689 -U 0.000000 -V 0.000000 -T 0.000000
n -t 13.000000 -s 0 -x 57.427698 -y 2.026036 -U 0.000000 -V 0.000000 -T 0.000000
n -t 13.000000 -s 1 -x 38.618475 -y 23.405079 -U 0.000000 -V 0.000000 -T 0.000000
n -t 13.000000 -s 3 -x 16.241486 -y 43.020600 -U 0.000000 -V 0.000000 -T 0.000000
n -t 13.000000 -s 4 -x 7.433326 -y 35.389373 -U 0.000000 -V 0.000000 -T 0.000000
n -t 13.000000 -s 5 -x 59.580990 -y 24.981684 -U 0.000000 -V 0.000000 -T 0.000000
n -t 13.000000 -s 6 -x 58.858249 -y 52.768758 -U 0.000000 -V 0.000000 -T 0.000000
n -t 13.000000 -s 7 -x 81.183869 -y 23.437689 -U 0.000000 -V 0.000000 -T 0.000000
n -t 14.000000 -s 0 -x 57.427698 -y 2.026036 -U 0.000000 -V 0.000000 -T 0.000000
n -t 14.000000 -s 1 -x 38.618475 -y 23.405079 -U 0.000000 -V 0.000000 -T 0.000000
n -t 14.000000 -s 3 -x 16.241486 -y 43.020600 -U 0.000000 -V 0.000000 -T 0.000000
n -t 14.000000 -s 4 -x 7.433326 -y 35.389373 -U 0.000000 -V 0.000000 -T 0.000000
n -t 14.000000 -s 5 -x 59.580990 -y 24.981684 -U 0.000000 -V 0.000000 -T 0.000000
n -t 14.000000 -s 6 -x 58.858249 -y 52.768758 -U 0.000000 -V 0.000000 -T 0.000000
n -t 14.000000 -s 7 -x 81.183869 -y 23.437689 -U 0.000000 -V 0.000000 -T 0.000000
n -t 15.000000 -s 0 -x 57.427698 -y 2.026036 -U 0.000000 -V 0.000000 -T 0.000000
n -t 15.000000 -s 1 -x 38.618475 -y 23.405079 -U 0.000000 -V 0.000000 -T 0.000000
n -t 15.000000 -s 3 -x 16.241486 -y 43.020600 -U 0.000000 -V 0.000000 -T 0.000000
n -t 15.000000 -s 4 -x 7.433326 -y 35.389373 -U 0.000000 -V 0.000000 -T 0.000000
n -t 15.000000 -s 5 -x 59.580990 -y 24.981684 -U 0.000000 -V 0.000000 -T 0.000000
n -t 15.000000 -s 6 -x 58.858249 -y 52.768758 -U 0.000000 -V 0.000000 -T 0.000000
n -t 15.000000 -s 7 -x 81.183869 -y 23.437689 -U 0.000000 -V 0.000000 -T 0.000000
n -t 16.000000 -s 0 -x 57.427698 -y 2.026036 -U 0.000000 -V 0.000000 -T 0.000000
n -t 16.000000 -s 1 -x 38.618475 -y 23.405079 -U 0.000000 -V 0.000000 -T 0.000000
n -t 16.000000 -s 3 -x 16.241486 -y 43.020600 -U 0.000000 -V 0.000000 -T 0.000000
n -t 16.000000 -s 4 -x 7.433326 -y 35.389373 -U 0.000000 -V 0.000000 -T 0.000000
n -t 16.000000 -s 5 -x 59.580990 -y 24.981684 -U 0.000000 -V 0.000000 -T 0.000000
n -t 16.000000 -s 6 -x 58.858249 -y 52.768758 -U 0.000000 -V 0.000000 -T 0.000000
n -t 16.000000 -s 7 -x 81.183869 -y 23.437689 -U 0.000000 -V 0.000000 -T 0.000000
n -t 17.000000 -s 0 -x 57.427698 -y 2.026036 -U 0.000000 -V 0.000000 -T 0.000000
n -t 17.000000 -s 1 -x 38.618475 -y 23.405079 -U 0.000000 -V 0.000000 -T 0.000000
n -t 17.000000 -s 3 -x 16.241486 -y 43.020600 -U 0.000000 -V 0.000000 -T 0.000000
n -t 17.000000 -s 4 -x 7.433326 -y 35.389373 -U 0.000000 -V 0.000000 -T 0.000000
n -t 17.000000 -s 5 -x 59.580990 -y 24.981684 -U 0.000000 -V 0.000000 -T 0.000000
n -t 17.000000 -s 6 -x 58.858249 -y 52.768758 -U 0.000000 -V 0.000000 -T 0.000000
n -t 17.000000 -s 7 -x 81.183869 -y 23.437689 -U 0.000000 -V 0.000000 -T 0.000000
n -t 18.000000 -s 0 -x 57.427698 -y 2.026036 -U 0.000000 -V 0.000000 -T 0.000000
n -t 18.000000 -s 1 -x 38.618475 -y 23.405079 -U 0.000000 -V 0.000000 -T 0.000000
n -t 18.000000 -s 3 -x 16.241486 -y 43.020600 -U 0.000000 -V 0.000000 -T 0.000000
n -t 18.000000 -s 4 -x 7.433326 -y 35.389373 -U 0.000000 -V 0.000000 -T 0.000000
n -t 18.000000 -s 5 -x 59.580990 -y 24.981684 -U 0.000000 -V 0.000000 -T 0.000000
n -t 18.000000 -s 6 -x 58.858249 -y 52.768758 -U 0.000000 -V 0.000000 -T 0.000000
n -t 18.000000 -s 7 -x 81.183869 -y 23.437689 -U 0.000000 -V 0.000000 -T 0.000000
n -t 19.000000 -s 0 -x 57.427698 -y 2.026036 -U 0.000000 -V 0.000000 -T 0.000000
n -t 19.000000 -s 1 -x 38.618475 -y 23.405079 -U 0.000000 -V 0.000000 -T 0.000000
n -t 19.000000 -s 3 -x 16.241486 -y 43.020600 -U 0.000000 -V 0.000000 -T 0.000000
n -t 19.000000 -s 4 -x 7.433326 -y 35.389373 -U 0.000000 -V 0.000000 -T 0.000000
n -t 19.000000 -s 5 -x 59.580990 -y 24.981684 -U 0.000000 -V 0.000000 -T 0.000000
n -t 19.000000 -s 6 -x 58.858249 -y 52.768758 -U 0.000000 -V 0.000000 -T 0.000000
n -t 19.000000 -s 7 -x 81.183869 -y 23.437689 -U 0.000000 -V 0.000000 -T 0.000000
n -t 20.000000 -s 10 -x 9.783851 -y 17.914380 -U 2.335714 -V 0.841690 -T 9.587363
n -t 20.000000 -s 0 -x 57.427698 -y 2.026036 -U 0.000000 -V 0.000000 -T 0.000000
n -t 20.000000 -s 1 -x 38.618475 -y 23.405079 -U 0.000000 -V 0.000000 -T 0.000000
n -t 20.000000 -s 3 -x 16.241486 -y 43.020600 -U 0.000000 -V 0.000000 -T 0.000000
n -t 20.000000 -s 4 -x 7.433326 -y 35.389373 -U 0.000000 -V 0.000000 -T 0.000000
n -t 20.000000 -s 5 -x 59.580990 -y 24.981684 -U 0.000000 -V 0.000000 -T 0.000000
n -t 20.000000 -s 6 -x 58.858249 -y 52.768758 -U 0.000000 -V 0.000000 -T 0.000000
n -t 20.000000 -s 7 -x 81.183869 -y 23.437689 -U 0.000000 -V 0.000000 -T 0.000000
n -t 21.000000 -s 0 -x 57.427698 -y 2.026036 -U 0.000000 -V 0.000000 -T 0.000000
n -t 21.000000 -s 1 -x 38.618475 -y 23.405079 -U 0.000000 -V 0.000000 -T 0.000000
n -t 21.000000 -s 3 -x 16.241486 -y 43.020600 -U 0.000000 -V 0.000000 -T 0.000000
n -t 21.000000 -s 4 -x 7.433326 -y 35.389373 -U 0.000000 -V 0.000000 -T 0.000000
n -t 21.000000 -s 5 -x 59.580990 -y 24.981684 -U 0.000000 -V 0.000000 -T 0.000000
n -t 21.000000 -s 6 -x 58.858249 -y 52.768758 -U 0.000000 -V 0.000000 -T 0.000000
n -t 21.000000 -s 7 -x 81.183869 -y 23.437689 -U 0.000000 -V 0.000000 -T 0.000000
n -t 22.000000 -s 0 -x 57.427698 -y 2.026036 -U 0.000000 -V 0.000000 -T 0.000000
n -t 22.000000 -s 1 -x 38.618475 -y 23.405079 -U 0.000000 -V 0.000000 -T 0.000000
n -t 22.000000 -s 3 -x 16.241486 -y 43.020600 -U 0.000000 -V 0.000000 -T 0.000000
n -t 22.000000 -s 4 -x 7.433326 -y 35.389373 -U 0.000000 -V 0.000000 -T 0.000000
n -t 22.000000 -s 5 -x 59.580990 -y 24.981684 -U 0.000000 -V 0.000000 -T 0.000000
n -t 22.000000 -s 6 -x 58.858249 -y 52.768758 -U 0.000000 -V 0.000000 -T 0.000000
n -t 22.000000 -s 7 -x 81.183869 -y 23.437689 -U 0.000000 -V 0.000000 -T 0.000000
n -t 23.000000 -s 0 -x 57.427698 -y 2.026036 -U 0.000000 -V 0.000000 -T 0.000000
n -t 23.000000 -s 1 -x 38.618475 -y 23.405079 -U 0.000000 -V 0.000000 -T 0.000000
n -t 23.000000 -s 3 -x 16.241486 -y 43.020600 -U 0.000000 -V 0.000000 -T 0.000000
n -t 23.000000 -s 4 -x 7.433326 -y 35.389373 -U 0.000000 -V 0.000000 -T 0.000000
n -t 23.000000 -s 5 -x 59.580990 -y 24.981684 -U 0.000000 -V 0.000000 -T 0.000000
n -t 23.000000 -s 6 -x 58.858249 -y 52.768758 -U 0.000000 -V 0.000000 -T 0.000000
n -t 23.000000 -s 7 -x 81.183869 -y 23.437689 -U 0.000000 -V 0.000000 -T 0.000000
n -t 24.000000 -s 0 -x 57.427698 -y 2.026036 -U 0.000000 -V 0.000000 -T 0.000000
n -t 24.000000 -s 1 -x 38.618475 -y 23.405079 -U 0.000000 -V 0.000000 -T 0.000000
n -t 24.000000 -s 3 -x 16.241486 -y 43.020600 -U 0.000000 -V 0.000000 -T 0.000000
n -t 24.000000 -s 4 -x 7.433326 -y 35.389373 -U 0.000000 -V 0.000000 -T 0.000000
n -t 24.000000 -s 5 -x 59.580990 -y 24.981684 -U 0.000000 -V 0.000000 -T 0.000000
n -t 24.000000 -s 6 -x 58.858249 -y 52.768758 -U 0.000000 -V 0.000000 -T 0.000000
n -t 24.000000 -s 7 -x 81.183869 -y 23.437689 -U 0.000000 -V 0.000000 -T 0.000000
n -t 25.000000 -s 0 -x 57.427698 -y 2.026036 -U 0.000000 -V 0.000000 -T 0.000000
n -t 25.000000 -s 1 -x 38.618475 -y 23.405079 -U 0.000000 -V 0.000000 -T 0.000000
n -t 25.000000 -s 3 -x 16.241486 -y 43.020600 -U 0.000000 -V 0.000000 -T 0.000000
n -t 25.000000 -s 4 -x 7.433326 -y 35.389373 -U 0.000000 -V 0.000000 -T 0.000000
n -t 25.000000 -s 5 -x 59.580990 -y 24.981684 -U 0.000000 -V 0.000000 -T 0.000000
n -t 25.000000 -s 6 -x 58.858249 -y 52.768758 -U 0.000000 -V 0.000000 -T 0.000000
n -t 25.000000 -s 7 -x 81.183869 -y 23.437689 -U 0.000000 -V 0.000000 -T 0.000000
n -t 26.000000 -s 0 -x 57.427698 -y 2.026036 -U 0.000000 -V 0.000000 -T 0.000000
n -t 26.000000 -s 1 -x 38.618475 -y 23.405079 -U 0.000000 -V 0.000000 -T 0.000000
n -t 26.000000 -s 3 -x 16.241486 -y 43.020600 -U 0.000000 -V 0.000000 -T 0.000000
n -t 26.000000 -s 4 -x 7.433326 -y 35.389373 -U 0.000000 -V 0.000000 -T 0.000000
n -t 26.000000 -s 5 -x 59.580990 -y 24.981684 -U 0.000000 -V 0.000000 -T 0.000000
n -t 26.000000 -s 6 -x 58.858249 -y 52.768758 -U 0.000000 -V 0.000000 -T 0.000000
n -t 26.000000 -s 7 -x 81.183869 -y 23.437689 -U 0.000000 -V 0.000000 -T 0.000000
n -t 27.000000 -s 0 -x 57.427698 -y 2.026036 -U 0.000000 -V 0.000000 -T 0.000000
n -t 27.000000 -s 1 -x 38.618475 -y 23.405079 -U 0.000000 -V 0.000000 -T 0.000000
n -t 27.000000 -s 3 -x 16.241486 -y 43.020600 -U 0.000000 -V 0.000000 -T 0.000000
n -t 27.000000 -s 4 -x 7.433326 -y 35.389373 -U 0.000000 -V 0.000000 -T 0.000000
n -t 27.000000 -s 5 -x 59.580990 -y 24.981684 -U 0.000000 -V 0.000000 -T 0.000000
n -t 27.000000 -s 6 -x 58.858249 -y 52.768758 -U 0.000000 -V 0.000000 -T 0.000000
n -t 27.000000 -s 7 -x 81.183869 -y 23.437689 -U 0.000000 -V 0.000000 -T 0.000000
n -t 28.000000 -s 0 -x 57.427698 -y 2.026036 -U 0.000000 -V 0.000000 -T 0.000000
n -t 28.000000 -s 2 -x 18.566751 -y 14.040127 -U 0.000000 -V 0.000000 -T 0.000000
n -t 28.000000 -s 3 -x 16.241486 -y 43.020600 -U 0.000000 -V 0.000000 -T 0.000000
n -t 28.000000 -s 4 -x 7.433326 -y 35.389373 -U 0.000000 -V 0.000000 -T 0.000000
n -t 28.000000 -s 5 -x 59.580990 -y 24.981684 -U 0.000000 -V 0.000000 -T 0.000000
n -t 28.000000 -s 6 -x 58.858249 -y 52.768758 -U 0.000000 -V 0.000000 -T 0.000000
n -t 28.000000 -s 7 -x 81.183869 -y 23.437689 -U 0.000000 -V 0.000000 -T 0.000000
n -t 29.000000 -s 0 -x 57.427698 -y 2.026036 -U 0.000000 -V 0.000000 -T 0.000000
n -t 29.000000 -s 2 -x 18.566751 -y 14.040127 -U 0.000000 -V 0.000000 -T 0.000000
n -t 29.000000 -s 3 -x 16.241486 -y 43.020600 -U 0.000000 -V 0.000000 -T 0.000000
n -t 29.000000 -s 4 -x 7.433326 -y 35.389373 -U 0.000000 -V 0.000000 -T 0.000000
n -t 29.000000 -s 5 -x 59.580990 -y 24.981684 -U 0.000000 -V 0.000000 -T 0.000000
n -t 29.000000 -s 6 -x 58.858249 -y 52.768758 -U 0.000000 -V 0.000000 -T 0.000000
n -t 29.000000 -s 7 -x 81.183869 -y 23.437689 -U 0.000000 -V 0.000000 -T 0.000000
n -t 30.000000 -s 0 -x 57.427698 -y 2.026036 -U 0.000000 -V 0.000000 -T 0.000000
n -t 30.000000 -s 2 -x 18.566751 -y 14.040127 -U 0.000000 -V 0.000000 -T 0.000000
n -t 30.000000 -s 3 -x 16.241486 -y 43.020600 -U 0.000000 -V 0.000000 -T 0.000000
n -t 30.000000 -s 4 -x 7.433326 -y 35.389373 -U 0.000000 -V 0.000000 -T 0.000000
n -t 30.000000 -s 5 -x 59.580990 -y 24.981684 -U 0.000000 -V 0.000000 -T 0.000000
n -t 30.000000 -s 6 -x 58.858249 -y 52.768758 -U 0.000000 -V 0.000000 -T 0.000000
n -t 30.000000 -s 7 -x 81.183869 -y 23.437689 -U 0.000000 -V 0.000000 -T 0.000000
n -t 31.000000 -s 0 -x 57.427698 -y 2.026036 -U 0.000000 -V 0.000000 -T 0.000000
n -t 31.000000 -s 2 -x 18.566751 -y 14.040127 -U 0.000000 -V 0.000000 -T 0.000000
n -t 31.000000 -s 3 -x 16.241486 -y 43.020600 -U 0.000000 -V 0.000000 -T 0.000000
n -t 31.000000 -s 4 -x 7.433326 -y 35.389373 -U 0.000000 -V 0.000000 -T 0.000000
n -t 31.000000 -s 5 -x 59.580990 -y 24.981684 -U 0.000000 -V 0.000000 -T 0.000000
n -t 31.000000 -s 6 -x 58.858249 -y 52.768758 -U 0.000000 -V 0.000000 -T 0.000000
n -t 31.000000 -s 7 -x 81.183869 -y 23.437689 -U 0.000000 -V 0.000000 -T 0.000000
n -t 32.000000 -s 0 -x 57.427698 -y 2.026036 -U 0.000000 -V 0.000000 -T 0.000000
n -t 32.000000 -s 2 -x 18.566751 -y 14.040127 -U 0.000000 -V 0.000000 -T 0.000000
n -t 32.000000 -s 3 -x 16.241486 -y 43.020600 -U 0.000000 -V 0.000000 -T 0.000000
n -t 32.000000 -s 4 -x 7.433326 -y 35.389373 -U 0.000000 -V 0.000000 -T 0.000000
n -t 32.000000 -s 5 -x 59.580990 -y 24.981684 -U 0.000000 -V 0.000000 -T 0.000000
n -t 32.000000 -s 6 -x 58.858249 -y 52.768758 -U 0.000000 -V 0.000000 -T 0.000000
n -t 32.000000 -s 7 -x 81.183869 -y 23.437689 -U 0.000000 -V 0.000000 -T 0.000000
n -t 33.000000 -s 10 -x 32.177190 -y 25.983970 -U -1.325535 -V -0.622703 -T 22.585187
n -t 33.000000 -s 0 -x 57.427698 -y 2.026036 -U 0.000000 -V 0.000000 -T 0.000000
n -t 33.000000 -s 2 -x 18.566751 -y 14.040127 -U 0.000000 -V 0.000000 -T 0.000000
n -t 33.000000 -s 3 -x 16.241486 -y 43.020600 -U 0.000000 -V 0.000000 -T 0.000000
n -t 33.000000 -s 4 -x 7.433326 -y 35.389373 -U 0.000000 -V 0.000000 -T 0.000000
n -t 33.000000 -s 5 -x 59.580990 -y 24.981684 -U 0.000000 -V 0.000000 -T 0.000000
n -t 33.000000 -s 6 -x 58.858249 -y 52.768758 -U 0.000000 -V 0.000000 -T 0.000000
n -t 33.000000 -s 7 -x 81.183869 -y 23.437689 -U 0.000000 -V 0.000000 -T 0.000000
n -t 34.000000 -s 0 -x 57.427698 -y 2.026036 -U 0.000000 -V 0.000000 -T 0.000000
n -t 34.000000 -s 2 -x 18.566751 -y 14.040127 -U 0.000000 -V 0.000000 -T 0.000000
n -t 34.000000 -s 3 -x 16.241486 -y 43.020600 -U 0.000000 -V 0.000000 -T 0.000000
n -t 34.000000 -s 4 -x 7.433326 -y 35.389373 -U 0.000000 -V 0.000000 -T 0.000000
n -t 34.000000 -s 5 -x 59.580990 -y 24.981684 -U 0.000000 -V 0.000000 -T 0.000000
n -t 34.000000 -s 6 -x 58.858249 -y 52.768758 -U 0.000000 -V 0.000000 -T 0.000000
n -t 34.000000 -s 7 -x 81.183869 -y 23.437689 -U 0.000000 -V 0.000000 -T 0.000000
n -t 35.000000 -s 0 -x 57.427698 -y 2.026036 -U 0.000000 -V 0.000000 -T 0.000000
n -t 35.000000 -s 2 -x 18.566751 -y 14.040127 -U 0.000000 -V 0.000000 -T 0.000000
n -t 35.000000 -s 3 -x 16.241486 -y 43.020600 -U 0.000000 -V 0.000000 -T 0.000000
n -t 35.000000 -s 4 -x 7.433326 -y 35.389373 -U 0.000000 -V 0.000000 -T 0.000000
n -t 35.000000 -s 5 -x 59.580990 -y 24.981684 -U 0.000000 -V 0.000000 -T 0.000000
n -t 35.000000 -s 6 -x 58.858249 -y 52.768758 -U 0.000000 -V 0.000000 -T 0.000000
n -t 35.000000 -s 7 -x 81.183869 -y 23.437689 -U 0.000000 -V 0.000000 -T 0.000000
n -t 36.000000 -s 0 -x 57.427698 -y 2.026036 -U 0.000000 -V 0.000000 -T 0.000000
n -t 36.000000 -s 2 -x 18.566751 -y 14.040127 -U 0.000000 -V 0.000000 -T 0.000000
n -t 36.000000 -s 3 -x 16.241486 -y 43.020600 -U 0.000000 -V 0.000000 -T 0.000000
n -t 36.000000 -s 4 -x 7.433326 -y 35.389373 -U 0.000000 -V 0.000000 -T 0.000000
n -t 36.000000 -s 5 -x 59.580990 -y 24.981684 -U 0.000000 -V 0.000000 -T 0.000000
n -t 36.000000 -s 6 -x 58.858249 -y 52.768758 -U 0.000000 -V 0.000000 -T 0.000000
n -t 36.000000 -s 7 -x 81.183869 -y 23.437689 -U 0.000000 -V 0.000000 -T 0.000000
n -t 37.000000 -s 0 -x 57.427698 -y 2.026036 -U 0.000000 -V 0.000000 -T 0.000000
n -t 37.000000 -s 2 -x 18.566751 -y 14.040127 -U 0.000000 -V 0.000000 -T 0.000000
n -t 37.000000 -s 3 -x 16.241486 -y 43.020600 -U 0.000000 -V 0.000000 -T 0.000000
n -t 37.000000 -s 4 -x 7.433326 -y 35.389373 -U 0.000000 -V 0.000000 -T 0.000000
n -t 37.000000 -s 5 -x 59.580990 -y 24.981684 -U 0.000000 -V 0.000000 -T 0.000000
n -t 37.000000 -s 6 -x 58.858249 -y 52.768758 -U 0.000000 -V 0.000000 -T 0.000000
n -t 37.000000 -s 7 -x 81.183869 -y 23.437689 -U 0.000000 -V 0.000000 -T 0.000000
n -t 38.000000 -s 0 -x 57.427698 -y 2.026036 -U 0.000000 -V 0.000000 -T 0.000000
n -t 38.000000 -s 1 -x 38.618475 -y 23.405079 -U 0.000000 -V 0.000000 -T 0.000000
n -t 38.000000 -s 3 -x 16.241486 -y 43.020600 -U 0.000000 -V 0.000000 -T 0.000000
n -t 38.000000 -s 4 -x 7.433326 -y 35.389373 -U 0.000000 -V 0.000000 -T 0.000000
n -t 38.000000 -s 5 -x 59.580990 -y 24.981684 -U 0.000000 -V 0.000000 -T 0.000000
n -t 38.000000 -s 6 -x 58.858249 -y 52.768758 -U 0.000000 -V 0.000000 -T 0.000000
n -t 38.000000 -s 7 -x 81.183869 -y 23.437689 -U 0.000000 -V 0.000000 -T 0.000000
n -t 39.000000 -s 0 -x 57.427698 -y 2.026036 -U 0.000000 -V 0.000000 -T 0.000000
n -t 39.000000 -s 1 -x 38.618475 -y 23.405079 -U 0.000000 -V 0.000000 -T 0.000000
n -t 39.000000 -s 3 -x 16.241486 -y 43.020600 -U 0.000000 -V 0.000000 -T 0.000000
n -t 39.000000 -s 4 -x 7.433326 -y 35.389373 -U 0.000000 -V 0.000000 -T 0.000000
n -t 39.000000 -s 5 -x 59.580990 -y 24.981684 -U 0.000000 -V 0.000000 -T 0.000000
n -t 39.000000 -s 6 -x 58.858249 -y 52.768758 -U 0.000000 -V 0.000000 -T 0.000000
n -t 39.000000 -s 7 -x 81.183869 -y 23.437689 -U 0.000000 -V 0.000000 -T 0.000000
n -t 40.000000 -s 0 -x 57.427698 -y 2.026036 -U 0.000000 -V 0.000000 -T 0.000000
n -t 40.000000 -s 1 -x 38.618475 -y 23.405079 -U 0.000000 -V 0.000000 -T 0.000000
n -t 40.000000 -s 3 -x 16.241486 -y 43.020600 -U 0.000000 -V 0.000000 -T 0.000000
n -t 40.000000 -s 4 -x 7.433326 -y 35.389373 -U 0.000000 -V 0.000000 -T 0.000000
n -t 40.000000 -s 5 -x 59.580990 -y 24.981684 -U 0.000000 -V 0.000000 -T 0.000000
n -t 40.000000 -s 6 -x 58.858249 -y 52.768758 -U 0.000000 -V 0.000000 -T 0.000000
n -t 40.000000 -s 7 -x 81.183869 -y 23.437689 -U 0.000000 -V 0.000000 -T 0.000000
n -t 41.000000 -s 0 -x 57.427698 -y 2.026036 -U 0.000000 -V 0.000000 -T 0.000000
n -t 41.000000 -s 1 -x 38.618475 -y 23.405079 -U 0.000000 -V 0.000000 -T 0.000000
n -t 41.000000 -s 3 -x 16.241486 -y 43.020600 -U 0.000000 -V 0.000000 -T 0.000000
n -t 41.000000 -s 4 -x 7.433326 -y 35.389373 -U 0.000000 -V 0.000000 -T 0.000000
n -t 41.000000 -s 5 -x 59.580990 -y 24.981684 -U 0.000000 -V 0.000000 -T 0.000000
n -t 41.000000 -s 6 -x 58.858249 -y 52.768758 -U 0.000000 -V 0.000000 -T 0.000000
n -t 41.000000 -s 7 -x 81.183869 -y 23.437689 -U 0.000000 -V 0.000000 -T 0.000000
n -t 42.000000 -s 0 -x 57.427698 -y 2.026036 -U 0.000000 -V 0.000000 -T 0.000000
n -t 42.000000 -s 1 -x 38.618475 -y 23.405079 -U 0.000000 -V 0.000000 -T 0.000000
n -t 42.000000 -s 3 -x 16.241486 -y 43.020600 -U 0.000000 -V 0.000000 -T 0.000000
n -t 42.000000 -s 4 -x 7.433326 -y 35.389373 -U 0.000000 -V 0.000000 -T 0.000000
n -t 42.000000 -s 5 -x 59.580990 -y 24.981684 -U 0.000000 -V 0.000000 -T 0.000000
n -t 42.000000 -s 6 -x 58.858249 -y 52.768758 -U 0.000000 -V 0.000000 -T 0.000000
n -t 42.000000 -s 7 -x 81.183869 -y 23.437689 -U 0.000000 -V 0.000000 -T 0.000000
n -t 43.000000 -s 0 -x 57.427698 -y 2.026036 -U 0.000000 -V 0.000000 -T 0.000000
n -t 43.000000 -s 1 -x 38.618475 -y 23.405079 -U 0.000000 -V 0.000000 -T 0.000000
n -t 43.000000 -s 3 -x 16.241486 -y 43.020600 -U 0.000000 -V 0.000000 -T 0.000000
n -t 43.000000 -s 4 -x 7.433326 -y 35.389373 -U 0.000000 -V 0.000000 -T 0.000000
n -t 43.000000 -s 5 -x 59.580990 -y 24.981684 -U 0.000000 -V 0.000000 -T 0.000000
n -t 43.000000 -s 6 -x 58.858249 -y 52.768758 -U 0.000000 -V 0.000000 -T 0.000000
n -t 43.000000 -s 7 -x 81.183869 -y 23.437689 -U 0.000000 -V 0.000000 -T 0.000000
n -t 44.000000 -s 0 -x 57.427698 -y 2.026036 -U 0.000000 -V 0.000000 -T 0.000000
n -t 44.000000 -s 1 -x 38.618475 -y 23.405079 -U 0.000000 -V 0.000000 -T 0.000000
n -t 44.000000 -s 3 -x 16.241486 -y 43.020600 -U 0.000000 -V 0.000000 -T 0.000000
n -t 44.000000 -s 4 -x 7.433326 -y 35.389373 -U 0.000000 -V 0.000000 -T 0.000000
n -t 44.000000 -s 5 -x 59.580990 -y 24.981684 -U 0.000000 -V 0.000000 -T 0.000000
n -t 44.000000 -s 6 -x 58.858249 -y 52.768758 -U 0.000000 -V 0.000000 -T 0.000000
n -t 44.000000 -s 7 -x 81.183869 -y 23.437689 -U 0.000000 -V 0.000000 -T 0.000000
n -t 45.000000 -s 0 -x 57.427698 -y 2.026036 -U 0.000000 -V 0.000000 -T 0.000000
n -t 45.000000 -s 1 -x 38.618475 -y 23.405079 -U 0.000000 -V 0.000000 -T 0.000000
n -t 45.000000 -s 3 -x 16.241486 -y 43.020600 -U 0.000000 -V 0.000000 -T 0.000000
n -t 45.000000 -s 4 -x 7.433326 -y 35.389373 -U 0.000000 -V 0.000000 -T 0.000000
n -t 45.000000 -s 5 -x 59.580990 -y 24.981684 -U 0.000000 -V 0.000000 -T 0.000000
n -t 45.000000 -s 6 -x 58.858249 -y 52.768758 -U 0.000000 -V 0.000000 -T 0.000000
n -t 45.000000 -s 7 -x 81.183869 -y 23.437689 -U 0.000000 -V 0.000000 -T 0.000000
n -t 46.000000 -s 0 -x 57.427698 -y 2.026036 -U 0.000000 -V 0.000000 -T 0.000000
n -t 46.000000 -s 1 -x 38.618475 -y 23.405079 -U 0.000000 -V 0.000000 -T 0.000000
n -t 46.000000 -s 3 -x 16.241486 -y 43.020600 -U 0.000000 -V 0.000000 -T 0.000000
n -t 46.000000 -s 4 -x 7.433326 -y 35.389373 -U 0.000000 -V 0.000000 -T 0.000000
n -t 46.000000 -s 5 -x 59.580990 -y 24.981684 -U 0.000000 -V 0.000000 -T 0.000000
n -t 46.000000 -s 6 -x 58.858249 -y 52.768758 -U 0.000000 -V 0.000000 -T 0.000000
n -t 46.000000 -s 7 -x 81.183869 -y 23.437689 -U 0.000000 -V 0.000000 -T 0.000000
n -t 47.000000 -s 0 -x 57.427698 -y 2.026036 -U 0.000000 -V 0.000000 -T 0.000000
n -t 47.000000 -s 1 -x 38.618475 -y 23.405079 -U 0.000000 -V 0.000000 -T 0.000000
n -t 47.000000 -s 3 -x 16.241486 -y 43.020600 -U 0.000000 -V 0.000000 -T 0.000000
n -t 47.000000 -s 4 -x 7.433326 -y 35.389373 -U 0.000000 -V 0.000000 -T 0.000000
n -t 47.000000 -s 5 -x 59.580990 -y 24.981684 -U 0.000000 -V 0.000000 -T 0.000000
n -t 47.000000 -s 6 -x 58.858249 -y 52.768758 -U 0.000000 -V 0.000000 -T 0.000000
n -t 47.000000 -s 7 -x 81.183869 -y 23.437689 -U 0.000000 -V 0.000000 -T 0.000000
n -t 48.000000 -s 0 -x 57.427698 -y 2.026036 -U 0.000000 -V 0.000000 -T 0.000000
n -t 48.000000 -s 1 -x 38.618475 -y 23.405079 -U 0.000000 -V 0.000000 -T 0.000000