n -t * -s 0  -x 15.12406 -y 68.765439999999998 -Z 0 -z 1  -v circle -c black
n -t * -s 1  -x 39.464350000000003 -y 83.699510000000004 -Z 0 -z 1  -v circle -c black
n -t * -s 2  -x 88.881079999999997 -y 95.208010000000002 -Z 0 -z 1  -v circle -c black
n -t * -s 3  -x 9.441649 -y 96.060379999999995 -Z 0 -z 1  -v circle -c black
n -t * -s 4  -x 12.470039999999999 -y 14.399900000000001 -Z 0 -z 1  -v circle -c black
n -t * -s 5  -x 13.1797 -y 68.048770000000005 -Z 0 -z 1  -v circle -c black
n -t * -s 6  -x 48.510869999999997 -y 34.049790000000002 -Z 0 -z 1  -v circle -c black
n -t * -s 7  -x 0.820658 -y 52.041089999999997 -Z 0 -z 1  -v circle -c black
n -t * -s 8  -x 27.518049999999999 -y 33.919130000000003 -Z 0 -z 1  -v circle -c black
n -t * -s 9  -x 33.280209999999997 -y 49.521720000000002 -Z 0 -z 1  -v circle -c black
n -t * -s 10  -x 81.500010000000003 -y 86.818110000000004 -Z 0 -z 2  -v circle -c black
n -t * -s 11  -x 6.65829 -y 9.7518180000000001 -Z 0 -z 2  -v circle -c black
n -t * -s 12  -x 83.285589999999999 -y 89.694940000000003 -Z 0 -z 2  -v circle -c black
V -t * -v 1.0a5 -a 0
W -t * -x 100 -y 100
A -t * -n 1 -p 0 -o 0x7fffffff -c 30 -a 1
A -t * -h 1 -m 1073741823 -s 0
n -t 0 -s 10 -S COLOR -c red -o black -i red -I black
n -t 0 -s 11 -S COLOR -c red -o black -i red -I black
n -t 0 -s 12 -S COLOR -c red -o black -i red -I black
n -t 0.000000 -s 10 -x 81.500010 -y 86.818110 -U 0.594953 -V -0.544313 -T 24.640951
n -t 0.000000 -s 11 -x 6.658290 -y 9.751818 -U 1.131479 -V 0.154694 -T 70.380283
n -t 0.000000 -s 12 -x 83.285590 -y 89.694940 -U -0.509516 -V -0.633983 -T 94.760171
n -t 0.000000 -s 4 -x 12.470040 -y 14.399900 -U -0.780955 -V -0.624587 -T 7.441848
n -t 0.000000 -s 2 -x 88.881080 -y 95.208010 -U -0.712334 -V -0.701841 -T 7.855154
n -t 0.000000 -s 8 -x 27.518050 -y 33.919130 -U -0.556659 -V -0.830741 -T 12.067752
n -t 0.000000 -s 1 -x 39.464350 -y 83.699510 -U 0.997259 -V 0.073986 -T 42.151185
n -t 0.000000 -s 1 -x 39.464350 -y 83.699510 -U 0.997259 -V 0.073986 -T 37.151185
n -t 0.000000 -s 4 -x 12.470040 -y 14.399900 -U -0.780955 -V -0.624587 -T 2.441848
n -t 0.000000 -s 8 -x 27.518050 -y 33.919130 -U 0.000000 -V 0.000000 -T 0.000000
n -t 0.000000 -s 2 -x 88.881080 -y 95.208010 -U -0.712334 -V -0.701841 -T 2.855154
n -t 1.000000 -s 1 -x 40.461609 -y 83.773496 -U 0.000000 -V 0.000000 -T 0.000000
n -t 1.000000 -s 4 -x 11.689085 -y 13.775313 -U 0.000000 -V 0.000000 -T 0.000000
n -t 1.000000 -s 8 -x 27.518050 -y 33.919130 -U 0.000000 -V 0.000000 -T 0.000000
n -t 1.000000 -s 2 -x 88.168746 -y 94.506169 -U 0.000000 -V 0.000000 -T 0.000000
n -t 1.000000 -s 4 -x 11.689085 -y 13.775313 -U -0.780955 -V -0.624587 -T 6.441848
n -t 1.000000 -s 2 -x 88.168746 -y 94.506169 -U -0.712334 -V -0.701841 -T 6.855154
n -t 1.000000 -s 8 -x 27.518050 -y 33.919130 -U -0.556659 -V -0.830741 -T 12.067752
n -t 1.000000 -s 1 -x 40.461609 -y 83.773496 -U 0.998202 -V 0.059947 -T 41.708364
n -t 1.000000 -s 1 -x 40.461609 -y 83.773496 -U 0.998202 -V 0.059947 -T 36.708364
n -t 1.000000 -s 4 -x 11.689085 -y 13.775313 -U -0.709879 -V -0.704324 -T 0.492930
n -t 1.000000 -s 8 -x 27.518050 -y 33.919130 -U 0.000000 -V 0.000000 -T 0.000000
n -t 1.000000 -s 2 -x 88.168746 -y 94.506169 -U -0.703671 -V -0.710526 -T 2.663632
n -t 2.000000 -s 1 -x 41.459811 -y 83.833443 -U 0.000000 -V 0.000000 -T 0.000000
n -t 2.000000 -s 4 -x 11.339164 -y 13.428130 -U 0.000000 -V 0.000000 -T 0.000000
n -t 2.000000 -s 8 -x 27.518050 -y 33.919130 -U 0.000000 -V 0.000000 -T 0.000000
n -t 2.000000 -s 2 -x 87.465076 -y 93.795643 -U 0.000000 -V 0.000000 -T 0.000000
n -t 2.000000 -s 2 -x 87.465076 -y 93.795643 -U -0.713802 -V -0.700347 -T 5.855242
n -t 2.000000 -s 4 -x 11.339164 -y 13.428130 -U -0.786442 -V -0.617664 -T 5.951962
n -t 2.000000 -s 8 -x 27.518050 -y 33.919130 -U -0.556659 -V -0.830741 -T 12.067752
n -t 2.000000 -s 1 -x 41.459811 -y 83.833443 -U 0.998944 -V 0.045938 -T 41.273678
n -t 2.000000 -s 1 -x 41.459811 -y 83.833443 -U 0.998944 -V 0.045938 -T 36.273678
n -t 2.000000 -s 8 -x 27.518050 -y 33.919130 -U 0.000000 -V 0.000000 -T 0.000000
n -t 2.000000 -s 2 -x 87.465076 -y 93.795643 -U -0.695631 -V -0.718399 -T 2.473098
n -t 3.000000 -s 1 -x 42.458755 -y 83.879382 -U 0.000000 -V 0.000000 -T 0.000000
n -t 3.000000 -s 4 -x 10.552722 -y 12.810466 -U 0.000000 -V 0.000000 -T 0.000000
n -t 3.000000 -s 8 -x 27.518050 -y 33.919130 -U 0.000000 -V 0.000000 -T 0.000000
n -t 3.000000 -s 2 -x 86.769445 -y 93.077243 -U 0.000000 -V 0.000000 -T 0.000000
n -t 3.000000 -s 2 -x 86.769445 -y 93.077243 -U -0.717487 -V -0.696572 -T 4.855638
n -t 3.000000 -s 4 -x 10.552722 -y 12.810466 -U -0.786442 -V -0.617664 -T 4.951962
n -t 3.000000 -s 8 -x 27.518050 -y 33.919130 -U -0.556659 -V -0.830741 -T 12.067752
n -t 3.000000 -s 1 -x 42.458755 -y 83.879382 -U 0.999489 -V 0.031968 -T 40.846990
n -t 3.000000 -s 1 -x 42.458755 -y 83.879382 -U 0.999489 -V 0.031968 -T 35.846990
n -t 3.000000 -s 8 -x 27.518050 -y 33.919130 -U 0.000000 -V 0.000000 -T 0.000000
n -t 3.000000 -s 2 -x 86.769445 -y 93.077243 -U -0.688198 -V -0.725523 -T 2.283372
n -t 4.000000 -s 1 -x 43.458244 -y 83.911349 -U 0.000000 -V 0.000000 -T 0.000000
n -t 4.000000 -s 4 -x 9.766280 -y 12.192802 -U 0.000000 -V 0.000000 -T 0.000000
n -t 4.000000 -s 8 -x 27.518050 -y 33.919130 -U 0.000000 -V 0.000000 -T 0.000000
n -t 4.000000 -s 2 -x 86.081247 -y 92.351720 -U 0.000000 -V 0.000000 -T 0.000000
n -t 4.000000 -s 2 -x 86.081247 -y 92.351720 -U -0.724882 -V -0.688873 -T 3.856706
n -t 4.000000 -s 4 -x 9.766280 -y 12.192802 -U -0.786442 -V -0.617664 -T 3.951962
n -t 4.000000 -s 8 -x 27.518050 -y 33.919130 -U -0.556659 -V -0.830741 -T 12.067752
n -t 4.000000 -s 1 -x 43.458244 -y 83.911349 -U 0.999837 -V 0.018045 -T 40.428159
n -t 4.000000 -s 1 -x 43.458244 -y 83.911349 -U 0.999837 -V 0.018045 -T 35.428159
n -t 4.000000 -s 8 -x 27.518050 -y 33.919130 -U 0.000000 -V 0.000000 -T 0.000000
n -t 4.000000 -s 2 -x 86.081247 -y 92.351720 -U -0.681352 -V -0.731955 -T 2.094302
n -t 5.000000 -s 1 -x 44.458081 -y 83.929394 -U 0.000000 -V 0.000000 -T 0.000000
n -t 5.000000 -s 4 -x 8.979837 -y 11.575138 -U 0.000000 -V 0.000000 -T 0.000000
n -t 5.000000 -s 8 -x 27.518050 -y 33.919130 -U 0.000000 -V 0.000000 -T 0.000000
n -t 5.000000 -s 2 -x 85.399894 -y 91.619765 -U 0.000000 -V 0.000000 -T 0.000000
n -t 5.000000 -s 2 -x 85.399894 -y 91.619765 -U -0.739465 -V -0.673195 -T 2.859237
n -t 5.000000 -s 4 -x 8.979837 -y 11.575138 -U -0.786442 -V -0.617664 -T 2.951962
n -t 5.000000 -s 8 -x 27.518050 -y 33.919130 -U -0.556659 -V -0.830741 -T 12.067752
n -t 5.000000 -s 1 -x 44.458081 -y 83.929394 -U 0.999991 -V 0.004177 -T 40.017041
n -t 5.000000 -s 1 -x 44.458081 -y 83.929394 -U 0.999991 -V 0.004177 -T 35.017041
n -t 5.000000 -s 8 -x 27.518050 -y 33.919130 -U 0.000000 -V 0.000000 -T 0.000000
n -t 5.000000 -s 2 -x 85.399894 -y 91.619765 -U -0.675072 -V -0.737752 -T 1.905762
n -t 6.000000 -s 1 -x 45.458072 -y 83.933571 -U 0.000000 -V 0.000000 -T 0.000000
n -t 6.000000 -s 4 -x 8.193395 -y 10.957475 -U 0.000000 -V 0.000000 -T 0.000000
n -t 6.000000 -s 8 -x 27.518050 -y 33.919130 -U 0.000000 -V 0.000000 -T 0.000000
n -t 6.000000 -s 2 -x 84.724823 -y 90.882013 -U 0.000000 -V 0.000000 -T 0.000000
n -t 6.000000 -s 2 -x 84.724823 -y 90.882013 -U -0.771451 -V -0.636289 -T 1.865619
n -t 6.000000 -s 4 -x 8.193395 -y 10.957475 -U -0.786442 -V -0.617664 -T 1.951962
n -t 6.000000 -s 8 -x 27.518050 -y 33.919130 -U -0.556659 -V -0.830741 -T 12.067752
n -t 6.000000 -s 1 -x 45.458072 -y 83.933571 -U 0.999954 -V -0.009627 -T 39.613489
n -t 6.000000 -s 1 -x 45.458072 -y 83.933571 -U 0.999954 -V -0.009627 -T 34.613489
n -t 6.000000 -s 4 -x 8.193395 -y 10.957475 -U 0.998608 -V -0.052745 -T 0.261094
n -t 6.000000 -s 8 -x 27.518050 -y 33.919130 -U 0.000000 -V 0.000000 -T 0.000000
n -t 6.000000 -s 2 -x 84.724823 -y 90.882013 -U -0.669331 -V -0.742964 -T 1.717646
n -t 7.000000 -s 1 -x 46.458026 -y 83.923944 -U 0.000000 -V 0.000000 -T 0.000000
n -t 7.000000 -s 4 -x 8.454125 -y 10.943703 -U 0.000000 -V 0.000000 -T 0.000000
n -t 7.000000 -s 8 -x 27.518050 -y 33.919130 -U 0.000000 -V 0.000000 -T 0.000000
n -t 7.000000 -s 2 -x 84.055492 -y 90.139048 -U 0.000000 -V 0.000000 -T 0.000000
n -t 7.000000 -s 2 -x 84.055492 -y 90.139048 -U -0.866218 -V -0.499667 -T 0.888809
n -t 7.000000 -s 4 -x 8.454125 -y 10.943703 -U 0.999842 -V -0.017799 -T 6.125490
n -t 7.000000 -s 8 -x 27.518050 -y 33.919130 -U 0.133298 -V -0.991076 -T 9.022841
n -t 7.000000 -s 1 -x 46.458026 -y 83.923944 -U 0.999727 -V -0.023358 -T 39.217352
n -t 7.000000 -s 6 -x 48.510870 -y 34.049790 -U -0.648737 -V -0.761013 -T 30.505562
n -t 7.000000 -s 1 -x 46.458026 -y 83.923944 -U 0.999727 -V -0.023358 -T 34.217352
n -t 7.000000 -s 4 -x 8.454125 -y 10.943703 -U 0.999842 -V -0.017799 -T 1.125490
n -t 7.000000 -s 8 -x 27.518050 -y 33.919130 -U 0.000000 -V 0.000000 -T 0.000000
n -t 7.000000 -s 6 -x 48.510870 -y 34.049790 -U 0.000000 -V 0.000000 -T 0.000000
n -t 7.000000 -s 2 -x 84.055492 -y 90.139048 -U -0.664104 -V -0.747640 -T 1.529868
n -t 8.000000 -s 1 -x 47.457753 -y 83.900587 -U 0.000000 -V 0.000000 -T 0.000000
n -t 8.000000 -s 4 -x 9.453967 -y 10.925904 -U 0.000000 -V 0.000000 -T 0.000000
n -t 8.000000 -s 8 -x 27.518050 -y 33.919130 -U 0.000000 -V 0.000000 -T 0.000000
n -t 8.000000 -s 6 -x 48.510870 -y 34.049790 -U 0.000000 -V 0.000000 -T 0.000000
n -t 8.000000 -s 2 -x 83.391388 -y 89.391408 -U 0.000000 -V 0.000000 -T 0.000000
n -t 8.000000 -s 2 -x 83.391388 -y 89.391408 -U -0.329135 -V 0.944283 -T 0.321442
n -t 8.000000 -s 4 -x 9.453967 -y 10.925904 -U 0.999842 -V -0.017799 -T 5.125490
n -t 8.000000 -s 8 -x 27.518050 -y 33.919130 -U 0.133298 -V -0.991076 -T 9.022841
n -t 8.000000 -s 1 -x 47.457753 -y 83.900587 -U 0.999315 -V -0.037009 -T 38.828478
n -t 8.000000 -s 6 -x 48.510870 -y 34.049790 -U -0.648737 -V -0.761013 -T 30.505562
n -t 8.000000 -s 1 -x 47.457753 -y 83.900587 -U 0.999315 -V -0.037009 -T 33.828478
n -t 8.000000 -s 4 -x 9.453967 -y 10.925904 -U 0.999949 -V 0.010144 -T 1.256479
n -t 8.000000 -s 8 -x 27.518050 -y 33.919130 -U 0.000000 -V 0.000000 -T 0.000000
n -t 8.000000 -s 6 -x 48.510870 -y 34.049790 -U 0.000000 -V 0.000000 -T 0.000000
n -t 8.000000 -s 2 -x 83.391388 -y 89.391408 -U -0.659364 -V -0.751824 -T 1.342358
n -t 9.000000 -s 1 -x 48.457068 -y 83.863578 -U 0.000000 -V 0.000000 -T 0.000000
n -t 9.000000 -s 4 -x 10.453915 -y 10.936047 -U 0.000000 -V 0.000000 -T 0.000000
n -t 9.000000 -s 8 -x 27.518050 -y 33.919130 -U 0.000000 -V 0.000000 -T 0.000000
n -t 9.000000 -s 6 -x 48.510870 -y 34.049790 -U 0.000000 -V 0.000000 -T 0.000000
n -t 9.000000 -s 2 -x 82.732023 -y 88.639585 -U 0.000000 -V 0.000000 -T 0.000000
n -t 9.000000 -s 2 -x 82.732023 -y 88.639585 -U 0.464508 -V 0.885569 -T 1.191726
n -t 9.000000 -s 4 -x 10.453915 -y 10.936047 -U 0.999698 -V -0.024570 -T 4.125975
n -t 9.000000 -s 8 -x 27.518050 -y 33.919130 -U 0.133298 -V -0.991076 -T 9.022841
n -t 9.000000 -s 1 -x 48.457068 -y 83.863578 -U 0.998720 -V -0.050571 -T 38.446710
n -t 9.000000 -s 6 -x 48.510870 -y 34.049790 -U -0.648737 -V -0.761013 -T 30.505562
n -t 9.000000 -s 1 -x 48.457068 -y 83.863578 -U 0.998720 -V -0.050571 -T 33.446710
n -t 9.000000 -s 4 -x 10.453915 -y 10.936047 -U 0.999470 -V 0.032547 -T 1.391074
n -t 9.000000 -s 8 -x 27.518050 -y 33.919130 -U 0.000000 -V 0.000000 -T 0.000000
n -t 9.000000 -s 6 -x 48.510870 -y 34.049790 -U 0.000000 -V 0.000000 -T 0.000000
n -t 9.000000 -s 2 -x 82.732023 -y 88.639585 -U -0.655083 -V -0.755557 -T 1.155057
n -t 10.000000 -s 1 -x 49.455789 -y 83.813007 -U 0.000000 -V 0.000000 -T 0.000000
n -t 10.000000 -s 4 -x 11.453386 -y 10.968595 -U 0.000000 -V 0.000000 -T 0.000000
n -t 10.000000 -s 8 -x 27.518050 -y 33.919130 -U 0.000000 -V 0.000000 -T 0.000000
n -t 10.000000 -s 6 -x 48.510870 -y 34.049790 -U 0.000000 -V 0.000000 -T 0.000000
n -t 10.000000 -s 2 -x 82.076940 -y 87.884028 -U 0.000000 -V 0.000000 -T 0.000000
n -t 10.000000 -s 2 -x 82.076940 -y 87.884028 -U 0.555137 -V 0.831759 -T 2.177209
n -t 10.000000 -s 4 -x 11.453386 -y 10.968595 -U 0.999083 -V -0.042812 -T 3.128127
n -t 10.000000 -s 8 -x 27.518050 -y 33.919130 -U 0.133298 -V -0.991076 -T 9.022841
n -t 10.000000 -s 1 -x 49.455789 -y 83.813007 -U 0.997947 -V -0.064038 -T 38.071891
n -t 10.000000 -s 6 -x 48.510870 -y 34.049790 -U -0.648737 -V -0.761013 -T 30.505562
n -t 10.000000 -s 1 -x 49.455789 -y 83.813007 -U 0.997947 -V -0.064038 -T 33.071891
n -t 10.000000 -s 4 -x 11.453386 -y 10.968595 -U 0.998720 -V 0.050575 -T 1.528051
n -t 10.000000 -s 8 -x 27.518050 -y 33.919130 -U 0.000000 -V 0.000000 -T 0.000000
n -t 10.000000 -s 6 -x 48.510870 -y 34.049790 -U 0.000000 -V 0.000000 -T 0.000000
n -t 10.000000 -s 2 -x 82.076940 -y 87.884028 -U -0.651233 -V -0.758878 -T 0.967920
n -t 11.000000 -s 1 -x 50.453736 -y 83.748969 -U 0.000000 -V 0.000000 -T 0.000000
n -t 11.000000 -s 4 -x 12.452106 -y 11.019170 -U 0.000000 -V 0.000000 -T 0.000000
n -t 11.000000 -s 8 -x 27.518050 -y 33.919130 -U 0.000000 -V 0.000000 -T 0.000000
n -t 11.000000 -s 6 -x 48.510870 -y 34.049790 -U 0.000000 -V 0.000000 -T 0.000000
n -t 11.000000 -s 2 -x 81.446598 -y 87.149495 -U 0.000000 -V 0.000000 -T 0.000000
n -t 11.000000 -s 4 -x 12.452106 -y 11.019170 -U 0.996258 -V -0.086435 -T 2.134527
n -t 11.000000 -s 2 -x 81.446598 -y 87.149495 -U 0.585619 -V 0.810586 -T 3.140251
n -t 11.000000 -s 8 -x 27.518050 -y 33.919130 -U 0.133298 -V -0.991076 -T 9.022841
n -t 11.000000 -s 1 -x 50.453736 -y 83.748969 -U 0.997000 -V -0.077401 -T 37.703863
n -t 11.000000 -s 6 -x 48.510870 -y 34.049790 -U -0.648737 -V -0.761013 -T 30.505562
n -t 11.000000 -s 1 -x 50.453736 -y 83.748969 -U 0.997000 -V -0.077401 -T 32.703863
n -t 11.000000 -s 4 -x 12.452106 -y 11.019170 -U 0.997876 -V 0.065142 -T 1.666616
n -t 11.000000 -s 8 -x 27.518050 -y 33.919130 -U 0.000000 -V 0.000000 -T 0.000000
n -t 11.000000 -s 6 -x 48.510870 -y 34.049790 -U 0.000000 -V 0.000000 -T 0.000000
n -t 11.000000 -s 2 -x 81.446598 -y 87.149495 -U -0.647805 -V -0.761806 -T 0.812988
n -t 12.000000 -s 1 -x 51.450736 -y 83.671569 -U 0.000000 -V 0.000000 -T 0.000000
n -t 12.000000 -s 4 -x 13.449982 -y 11.084313 -U 0.000000 -V 0.000000 -T 0.000000
n -t 12.000000 -s 8 -x 27.518050 -y 33.919130 -U 0.000000 -V 0.000000 -T 0.000000
n -t 12.000000 -s 6 -x 48.510870 -y 34.049790 -U 0.000000 -V 0.000000 -T 0.000000
n -t 12.000000 -s 2 -x 80.919940 -y 86.530156 -U 0.000000 -V 0.000000 -T 0.000000
n -t 12.000000 -s 4 -x 13.449982 -y 11.084313 -U 0.976402 -V -0.215962 -T 1.155941
n -t 12.000000 -s 2 -x 80.919940 -y 86.530156 -U -0.644846 -V -0.764313 -T 5.813083
n -t 12.000000 -s 8 -x 27.518050 -y 33.919130 -U 0.133298 -V -0.991076 -T 9.022841
n -t 12.000000 -s 1 -x 51.450736 -y 83.671569 -U 0.990767 -V -0.135578 -T 11.686433
n -t 12.000000 -s 6 -x 48.510870 -y 34.049790 -U -0.648737 -V -0.761013 -T 30.505562
n -t 12.000000 -s 4 -x 13.449982 -y 11.084313 -U 0.997034 -V 0.076963 -T 1.806247
n -t 12.000000 -s 8 -x 27.518050 -y 33.919130 -U 0.000000 -V 0.000000 -T 0.000000
n -t 12.000000 -s 6 -x 48.510870 -y 34.049790 -U 0.000000 -V 0.000000 -T 0.000000
n -t 12.000000 -s 2 -x 80.919940 -y 86.530156 -U -0.644846 -V -0.764313 -T 0.813083
n -t 12.000000 -s 1 -x 51.450736 -y 83.671569 -U 0.000000 -V 0.000000 -T 0.000000
n -t 13.000000 -s 4 -x 14.447016 -y 11.161276 -U 0.000000 -V 0.000000 -T 0.000000
n -t 13.000000 -s 8 -x 27.518050 -y 33.919130 -U 0.000000 -V 0.000000 -T 0.000000
n -t 13.000000 -s 6 -x 48.510870 -y 34.049790 -U 0.000000 -V 0.000000 -T 0.000000
n -t 13.000000 -s 2 -x 80.395627 -y 85.908706 -U 0.000000 -V 0.000000 -T 0.000000
n -t 13.000000 -s 1 -x 51.450736 -y 83.671569 -U 0.000000 -V 0.000000 -T 0.000000
n -t 13.000000 -s 4 -x 14.447016 -y 11.161276 -U 0.373808 -V -0.927506 -T 0.352129
n -t 13.000000 -s 2 -x 80.395627 -y 85.908706 -U -0.644846 -V -0.764313 -T 5.000000
n -t 13.000000 -s 8 -x 27.518050 -y 33.919130 -U 0.133298 -V -0.991076 -T 9.022841
n -t 13.000000 -s 1 -x 51.450736 -y 83.671569 -U 0.990767 -V -0.135578 -T 11.686433
n -t 13.000000 -s 6 -x 48.510870 -y 34.049790 -U -0.648737 -V -0.761013 -T 30.505562
n -t 13.000000 -s 4 -x 14.447016 -y 11.161276 -U 0.996243 -V 0.086598 -T 1.946600
n -t 13.000000 -s 8 -x 27.518050 -y 33.919130 -U 0.000000 -V 0.000000 -T 0.000000
n -t 13.000000 -s 6 -x 48.510870 -y 34.049790 -U 0.000000 -V 0.000000 -T 0.000000
n -t 13.000000 -s 2 -x 80.395627 -y 85.908706 -U -0.642292 -V -0.766460 -T 0.813153
n -t 13.000000 -s 1 -x 51.450736 -y 83.671569 -U 0.000000 -V 0.000000 -T 0.000000
n -t 14.000000 -s 4 -x 15.443259 -y 11.247873 -U 0.000000 -V 0.000000 -T 0.000000
n -t 14.000000 -s 8 -x 27.518050 -y 33.919130 -U 0.000000 -V 0.000000 -T 0.000000
n -t 14.000000 -s 6 -x 48.510870 -y 34.049790 -U 0.000000 -V 0.000000 -T 0.000000
n -t 14.000000 -s 2 -x 79.873345 -y 85.285457 -U 0.000000 -V 0.000000 -T 0.000000
n -t 14.000000 -s 1 -x 51.450736 -y 83.671569 -U 0.000000 -V 0.000000 -T 0.000000
n -t 14.000000 -s 2 -x 79.873345 -y 85.285457 -U -0.645341 -V -0.763895 -T 4.186852
n -t 14.000000 -s 4 -x 15.443259 -y 11.247873 -U 0.995526 -V 0.094485 -T 7.087447
n -t 14.000000 -s 1 -x 51.450736 -y 83.671569 -U 0.990767 -V -0.135578 -T 11.686433
n -t 14.000000 -s 8 -x 27.518050 -y 33.919130 -U 0.757626 -V -0.652689 -T 12.041673
n -t 14.000000 -s 6 -x 48.510870 -y 34.049790 -U -0.472629 -V -0.881262 -T 25.114290
n -t 14.000000 -s 9 -x 33.280210 -y 49.521720 -U 0.885477 -V 0.464683 -T 63.862901
n -t 14.000000 -s 9 -x 33.280210 -y 49.521720 -U 0.885477 -V 0.464683 -T 58.862901
n -t 14.000000 -s 4 -x 15.443259 -y 11.247873 -U 0.995526 -V 0.094485 -T 2.087447
n -t 14.000000 -s 8 -x 27.518050 -y 33.919130 -U 0.000000 -V 0.000000 -T 0.000000
n -t 14.000000 -s 6 -x 48.510870 -y 34.049790 -U 0.000000 -V 0.000000 -T 0.000000
n -t 14.000000 -s 2 -x 79.873345 -y 85.285457 -U -0.640091 -V -0.768299 -T 0.813205
n -t 14.000000 -s 1 -x 51.450736 -y 83.671569 -U 0.000000 -V 0.000000 -T 0.000000
n -t 15.000000 -s 9 -x 34.165687 -y 49.986403 -U 0.000000 -V 0.000000 -T 0.000000
n -t 15.000000 -s 4 -x 16.438786 -y 11.342358 -U 0.000000 -V 0.000000 -T 0.000000
n -t 15.000000 -s 8 -x 27.518050 -y 33.919130 -U 0.000000 -V 0.000000 -T 0.000000
n -t 15.000000 -s 6 -x 48.510870 -y 34.049790 -U 0.000000 -V 0.000000 -T 0.000000
n -t 15.000000 -s 2 -x 79.352821 -y 84.660672 -U 0.000000 -V 0.000000 -T 0.000000
n -t 15.000000 -s 1 -x 51.450736 -y 83.671569 -U 0.000000 -V 0.000000 -T 0.000000
n -t 15.000000 -s 2 -x 79.352821 -y 84.660672 -U -0.646602 -V -0.762828 -T 3.373671
n -t 15.000000 -s 4 -x 16.438786 -y 11.342358 -U 0.995526 -V 0.094485 -T 6.087447
n -t 15.000000 -s 1 -x 51.450736 -y 83.671569 -U 0.990767 -V -0.135578 -T 11.686433
n -t 15.000000 -s 8 -x 27.518050 -y 33.919130 -U 0.757626 -V -0.652689 -T 12.041673
n -t 15.000000 -s 6 -x 48.510870 -y 34.049790 -U -0.472629 -V -0.881262 -T 25.114290
n -t 15.000000 -s 9 -x 34.165687 -y 49.986403 -U 0.890995 -V 0.454013 -T 63.141340
n -t 15.000000 -s 9 -x 34.165687 -y 49.986403 -U 0.890995 -V 0.454013 -T 58.141340
n -t 15.000000 -s 4 -x 16.438786 -y 11.342358 -U 0.994890 -V 0.100969 -T 2.228634
n -t 15.000000 -s 8 -x 27.518050 -y 33.919130 -U 0.000000 -V 0.000000 -T 0.000000
n -t 15.000000 -s 6 -x 48.510870 -y 34.049790 -U 0.000000 -V 0.000000 -T 0.000000
n -t 15.000000 -s 2 -x 79.352821 -y 84.660672 -U -0.638193 -V -0.769877 -T 0.813243
n -t 15.000000 -s 1 -x 51.450736 -y 83.671569 -U 0.000000 -V 0.000000 -T 0.000000
n -t 16.000000 -s 9 -x 35.056682 -y 50.440416 -U 0.000000 -V 0.000000 -T 0.000000
n -t 16.000000 -s 4 -x 17.433675 -y 11.443327 -U 0.000000 -V 0.000000 -T 0.000000
n -t 16.000000 -s 8 -x 27.518050 -y 33.919130 -U 0.000000 -V 0.000000 -T 0.000000
n -t 16.000000 -s 6 -x 48.510870 -y 34.049790 -U 0.000000 -V 0.000000 -T 0.000000
n -t 16.000000 -s 2 -x 78.833815 -y 84.034575 -U 0.000000 -V 0.000000 -T 0.000000
n -t 16.000000 -s 1 -x 51.450736 -y 83.671569 -U 0.000000 -V 0.000000 -T 0.000000
n -t 16.000000 -s 2 -x 78.833815 -y 84.034575 -U -0.649256 -V -0.760570 -T 2.560493
n -t 16.000000 -s 4 -x 17.433675 -y 11.443327 -U 0.995646 -V 0.093210 -T 5.087473
n -t 16.000000 -s 1 -x 51.450736 -y 83.671569 -U 0.990767 -V -0.135578 -T 11.686433
n -t 16.000000 -s 8 -x 27.518050 -y 33.919130 -U 0.757626 -V -0.652689 -T 12.041673
n -t 16.000000 -s 6 -x 48.510870 -y 34.049790 -U -0.472629 -V -0.881262 -T 25.114290
n -t 16.000000 -s 9 -x 35.056682 -y 50.440416 -U 0.896421 -V 0.443203 -T 62.428881
n -t 16.000000 -s 9 -x 35.056682 -y 50.440416 -U 0.896421 -V 0.443203 -T 57.428881
n -t 16.000000 -s 4 -x 17.433675 -y 11.443327 -U 0.994332 -V 0.106321 -T 2.370057
n -t 16.000000 -s 8 -x 27.518050 -y 33.919130 -U 0.000000 -V 0.000000 -T 0.000000
n -t 16.000000 -s 6 -x 48.510870 -y 34.049790 -U 0.000000 -V 0.000000 -T 0.000000
n -t 16.000000 -s 2 -x 78.833815 -y 84.034575 -U -0.636557 -V -0.771230 -T 0.813271
n -t 16.000000 -s 1 -x 51.450736 -y 83.671569 -U 0.000000 -V 0.000000 -T 0.000000
n -t 17.000000 -s 9 -x 35.953103 -y 50.883619 -U 0.000000 -V 0.000000 -T 0.000000
n -t 17.000000 -s 4 -x 18.428007 -y 11.549647 -U 0.000000 -V 0.000000 -T 0.000000
n -t 17.000000 -s 8 -x 27.518050 -y 33.919130 -U 0.000000 -V 0.000000 -T 0.000000
n -t 17.000000 -s 6 -x 48.510870 -y 34.049790 -U 0.000000 -V 0.000000 -T 0.000000
n -t 17.000000 -s 2 -x 78.316122 -y 83.407356 -U 0.000000 -V 0.000000 -T 0.000000
n -t 17.000000 -s 1 -x 51.450736 -y 83.671569 -U 0.000000 -V 0.000000 -T 0.000000
n -t 17.000000 -s 2 -x 78.316122 -y 83.407356 -U -0.655105 -V -0.755537 -T 1.747385
n -t 17.000000 -s 4 -x 18.428007 -y 11.549647 -U 0.995942 -V 0.090000 -T 4.087581
n -t 17.000000 -s 1 -x 51.450736 -y 83.671569 -U 0.990767 -V -0.135578 -T 11.686433
n -t 17.000000 -s 8 -x 27.518050 -y 33.919130 -U 0.757626 -V -0.652689 -T 12.041673
n -t 17.000000 -s 6 -x 48.510870 -y 34.049790 -U -0.472629 -V -0.881262 -T 25.114290
n -t 17.000000 -s 9 -x 35.953103 -y 50.883619 -U 0.901752 -V 0.432255 -T 61.725544
n -t 17.000000 -s 9 -x 35.953103 -y 50.883619 -U 0.901752 -V 0.432255 -T 56.725544
n -t 17.000000 -s 4 -x 18.428007 -y 11.549647 -U 0.993848 -V 0.110756 -T 2.511645
n -t 17.000000 -s 8 -x 27.518050 -y 33.919130 -U 0.000000 -V 0.000000 -T 0.000000
n -t 17.000000 -s 6 -x 48.510870 -y 34.049790 -U 0.000000 -V 0.000000 -T 0.000000
n -t 17.000000 -s 2 -x 78.316122 -y 83.407356 -U -0.635148 -V -0.772390 -T 0.813292
n -t 17.000000 -s 1 -x 51.450736 -y 83.671569 -U 0.000000 -V 0.000000 -T 0.000000
n -t 18.000000 -s 9 -x 36.854855 -y 51.315874 -U 0.000000 -V 0.000000 -T 0.000000
n -t 18.000000 -s 4 -x 19.421855 -y 11.660404 -U 0.000000 -V 0.000000 -T 0.000000
n -t 18.000000 -s 8 -x 27.518050 -y 33.919130 -U 0.000000 -V 0.000000 -T 0.000000
n -t 18.000000 -s 6 -x 48.510870 -y 34.049790 -U 0.000000 -V 0.000000 -T 0.000000
n -t 18.000000 -s 2 -x 77.799561 -y 82.779177 -U 0.000000 -V 0.000000 -T 0.000000
n -t 18.000000 -s 1 -x 51.450736 -y 83.671569 -U 0.000000 -V 0.000000 -T 0.000000
n -t 18.000000 -s 2 -x 77.799561 -y 82.779177 -U -0.672109 -V -0.740453 -T 0.934612
n -t 18.000000 -s 4 -x 19.421855 -y 11.660404 -U 0.996527 -V 0.083269 -T 3.087869
n -t 18.000000 -s 1 -x 51.450736 -y 83.671569 -U 0.990767 -V -0.135578 -T 11.686433
n -t 18.000000 -s 8 -x 27.518050 -y 33.919130 -U 0.757626 -V -0.652689 -T 12.041673
n -t 18.000000 -s 6 -x 48.510870 -y 34.049790 -U -0.472629 -V -0.881262 -T 25.114290
n -t 18.000000 -s 9 -x 36.854855 -y 51.315874 -U 0.906982 -V 0.421170 -T 61.031345
n -t 18.000000 -s 9 -x 36.854855 -y 51.315874 -U 0.906982 -V 0.421170 -T 56.031345
n -t 18.000000 -s 4 -x 19.421855 -y 11.660404 -U 0.993429 -V 0.114447 -T 2.653349
n -t 18.000000 -s 8 -x 27.518050 -y 33.919130 -U 0.000000 -V 0.000000 -T 0.000000
n -t 18.000000 -s 6 -x 48.510870 -y 34.049790 -U 0.000000 -V 0.000000 -T 0.000000
n -t 18.000000 -s 2 -x 77.799561 -y 82.779177 -U -0.633934 -V -0.773387 -T 0.813308
n -t 18.000000 -s 1 -x 51.450736 -y 83.671569 -U 0.000000 -V 0.000000 -T 0.000000
n -t 19.000000 -s 9 -x 37.761836 -y 51.737045 -U 0.000000 -V 0.000000 -T 0.000000
n -t 19.000000 -s 4 -x 20.415284 -y 11.774850 -U 0.000000 -V 0.000000 -T 0.000000
n -t 19.000000 -s 8 -x 27.518050 -y 33.919130 -U 0.000000 -V 0.000000 -T 0.000000
n -t 19.000000 -s 6 -x 48.510870 -y 34.049790 -U 0.000000 -V 0.000000 -T 0.000000
n -t 19.000000 -s 2 -x 77.283977 -y 82.150176 -U 0.000000 -V 0.000000 -T 0.000000
n -t 19.000000 -s 1 -x 51.450736 -y 83.671569 -U 0.000000 -V 0.000000 -T 0.000000
n -t 19.000000 -s 2 -x 77.283977 -y 82.150176 -U -0.872535 -V -0.488552 -T 0.129023
n -t 19.000000 -s 4 -x 20.415284 -y 11.774850 -U 0.997664 -V 0.068313 -T 2.088595
n -t 19.000000 -s 1 -x 51.450736 -y 83.671569 -U 0.990767 -V -0.135578 -T 11.686433
n -t 19.000000 -s 8 -x 27.518050 -y 33.919130 -U 0.757626 -V -0.652689 -T 12.041673
n -t 19.000000 -s 6 -x 48.510870 -y 34.049790 -U -0.472629 -V -0.881262 -T 25.114290
n -t 19.000000 -s 9 -x 37.761836 -y 51.737045 -U 0.841714 -V 0.539923 -T 30.019009
n -t 19.000000 -s 4 -x 20.415284 -y 11.774850 -U 0.993070 -V 0.117528 -T 2.795135
n -t 19.000000 -s 8 -x 27.518050 -y 33.919130 -U 0.000000 -V 0.000000 -T 0.000000
n -t 19.000000 -s 6 -x 48.510870 -y 34.049790 -U 0.000000 -V 0.000000 -T 0.000000
n -t 19.000000 -s 2 -x 77.283977 -y 82.150176 -U -0.632889 -V -0.774242 -T 0.813319
n -t 19.000000 -s 1 -x 51.450736 -y 83.671569 -U 0.000000 -V 0.000000 -T 0.000000
n -t 19.000000 -s 9 -x 37.761836 -y 51.737045 -U 0.000000 -V 0.000000 -T 0.000000
n -t 20.000000 -s 4 -x 21.408354 -y 11.892378 -U 0.000000 -V 0.000000 -T 0.000000
n -t 20.000000 -s 8 -x 27.518050 -y 33.919130 -U 0.000000 -V 0.000000 -T 0.000000
n -t 20.000000 -s 6 -x 48.510870 -y 34.049790 -U 0.000000 -V 0.000000 -T 0.000000
n -t 20.000000 -s 2 -x 76.769236 -y 81.520470 -U 0.000000 -V 0.000000 -T 0.000000
n -t 20.000000 -s 1 -x 51.450736 -y 83.671569 -U 0.000000 -V 0.000000 -T 0.000000
n -t 20.000000 -s 9 -x 37.761836 -y 51.737045 -U 0.000000 -V 0.000000 -T 0.000000
n -t 20.000000 -s 2 -x 76.769236 -y 81.520470 -U 0.578757 -V 0.815500 -T 0.694876
n -t 20.000000 -s 4 -x 21.408354 -y 11.892378 -U 0.999734 -V 0.023054 -T 1.090936
n -t 20.000000 -s 1 -x 51.450736 -y 83.671569 -U 0.990767 -V -0.135578 -T 11.686433
n -t 20.000000 -s 8 -x 27.518050 -y 33.919130 -U 0.757626 -V -0.652689 -T 12.041673
n -t 20.000000 -s 6 -x 48.510870 -y 34.049790 -U -0.472629 -V -0.881262 -T 25.114290
n -t 20.000000 -s 9 -x 37.761836 -y 51.737045 -U 0.841714 -V 0.539923 -T 30.019009
n -t 20.000000 -s 4 -x 21.408354 -y 11.892378 -U 0.992761 -V 0.120110 -T 2.936981
n -t 20.000000 -s 8 -x 27.518050 -y 33.919130 -U 0.000000 -V 0.000000 -T 0.000000
n -t 20.000000 -s 6 -x 48.510870 -y 34.049790 -U 0.000000 -V 0.000000 -T 0.000000
n -t 20.000000 -s 2 -x 76.769236 -y 81.520470 -U -0.631990 -V -0.774977 -T 0.813328
n -t 20.000000 -s 1 -x 51.450736 -y 83.671569 -U 0.000000 -V 0.000000 -T 0.000000
n -t 20.000000 -s 9 -x 37.761836 -y 51.737045 -U 0.000000 -V 0.000000 -T 0.000000
n -t 21.000000 -s 4 -x 22.401114 -y 12.012488 -U 0.000000 -V 0.000000 -T 0.000000
n -t 21.000000 -s 8 -x 27.518050 -y 33.919130 -U 0.000000 -V 0.000000 -T 0.000000
n -t 21.000000 -s 6 -x 48.510870 -y 34.049790 -U 0.000000 -V 0.000000 -T 0.000000
n -t 21.000000 -s 2 -x 76.255221 -y 80.890160 -U 0.000000 -V 0.000000 -T 0.000000
n -t 21.000000 -s 1 -x 51.450736 -y 83.671569 -U 0.000000 -V 0.000000 -T 0.000000
n -t 21.000000 -s 9 -x 37.761836 -y 51.737045 -U 0.000000 -V 0.000000 -T 0.000000
n -t 21.000000 -s 2 -x 76.255221 -y 80.890160 -U 0.607802 -V 0.794089 -T 1.507365
n -t 21.000000 -s 4 -x 22.401114 -y 12.012488 -U 0.992495 -V 0.122281 -T 8.078868
n -t 21.000000 -s 6 -x 48.510870 -y 34.049790 -U -0.496363 -V -0.868115 -T 7.956631
n -t 21.000000 -s 8 -x 27.518050 -y 33.919130 -U 0.393580 -V -0.919290 -T 7.371568
n -t 21.000000 -s 1 -x 51.450736 -y 83.671569 -U 0.990767 -V -0.135578 -T 11.686433
n -t 21.000000 -s 9 -x 37.761836 -y 51.737045 -U 0.841714 -V 0.539923 -T 30.019009
n -t 21.000000 -s 4 -x 22.401114 -y 12.012488 -U 0.992495 -V 0.122281 -T 3.078868
n -t 21.000000 -s 6 -x 48.510870 -y 34.049790 -U 0.000000 -V 0.000000 -T 0.000000
n -t 21.000000 -s 8 -x 27.518050 -y 33.919130 -U 0.000000 -V 0.000000 -T 0.000000
n -t 21.000000 -s 2 -x 76.255221 -y 80.890160 -U -0.631215 -V -0.775608 -T 0.813334
n -t 21.000000 -s 1 -x 51.450736 -y 83.671569 -U 0.000000 -V 0.000000 -T 0.000000
n -t 21.000000 -s 9 -x 37.761836 -y 51.737045 -U 0.000000 -V 0.000000 -T 0.000000
n -t 22.000000 -s 4 -x 23.393610 -y 12.134770 -U 0.000000 -V 0.000000 -T 0.000000
n -t 22.000000 -s 6 -x 48.510870 -y 34.049790 -U 0.000000 -V 0.000000 -T 0.000000
n -t 22.000000 -s 8 -x 27.518050 -y 33.919130 -U 0.000000 -V 0.000000 -T 0.000000
n -t 22.000000 -s 2 -x 75.741832 -y 80.259331 -U 0.000000 -V 0.000000 -T 0.000000
n -t 22.000000 -s 1 -x 51.450736 -y 83.671569 -U 0.000000 -V 0.000000 -T 0.000000
n -t 22.000000 -s 9 -x 37.761836 -y 51.737045 -U 0.000000 -V 0.000000 -T 0.000000
n -t 22.000000 -s 2 -x 75.741832 -y 80.259331 -U 0.616070 -V 0.787692 -T 2.320464
n -t 22.000000 -s 4 -x 23.393610 -y 12.134770 -U 0.992495 -V 0.122281 -T 7.078868
n -t 22.000000 -s 6 -x 48.510870 -y 34.049790 -U -0.496363 -V -0.868115 -T 7.956631
n -t 22.000000 -s 8 -x 27.518050 -y 33.919130 -U 0.393580 -V -0.919290 -T 7.371568
n -t 22.000000 -s 1 -x 51.450736 -y 83.671569 -U 0.990767 -V -0.135578 -T 11.686433
n -t 22.000000 -s 9 -x 37.761836 -y 51.737045 -U 0.841714 -V 0.539923 -T 30.019009
n -t 22.000000 -s 4 -x 23.393610 -y 12.134770 -U 0.992268 -V 0.124113 -T 3.220786
n -t 22.000000 -s 6 -x 48.510870 -y 34.049790 -U 0.000000 -V 0.000000 -T 0.000000
n -t 22.000000 -s 8 -x 27.518050 -y 33.919130 -U 0.000000 -V 0.000000 -T 0.000000
n -t 22.000000 -s 2 -x 75.741832 -y 80.259331 -U -0.630548 -V -0.776150 -T 0.813339
n -t 22.000000 -s 1 -x 51.450736 -y 83.671569 -U 0.000000 -V 0.000000 -T 0.000000
n -t 22.000000 -s 9 -x 37.761836 -y 51.737045 -U 0.000000 -V 0.000000 -T 0.000000
n -t 23.000000 -s 4 -x 24.385878 -y 12.258883 -U 0.000000 -V 0.000000 -T 0.000000
n -t 23.000000 -s 6 -x 48.510870 -y 34.049790 -U 0.000000 -V 0.000000 -T 0.000000
n -t 23.000000 -s 8 -x 27.518050 -y 33.919130 -U 0.000000 -V 0.000000 -T 0.000000