n -t * -s 0  -x 30.091049999999999 -y 96.021559999999994 -Z 0 -z 1  -v circle -c black
n -t * -s 1  -x 69.776560000000003 -y 83.303319999999999 -Z 0 -z 1  -v circle -c black
n -t * -s 2  -x 89.033690000000007 -y 77.761870000000002 -Z 0 -z 1  -v circle -c black
n -t * -s 3  -x 87.406000000000006 -y 39.058399999999999 -Z 0 -z 1  -v circle -c black
n -t * -s 4  -x 51.216920000000002 -y 22.286339999999999 -Z 0 -z 1  -v circle -c black
n -t * -s 5  -x 5.9846620000000001 -y 26.699860000000001 -Z 0 -z 1  -v circle -c black
n -t * -s 6  -x 82.016570000000002 -y 35.079720000000002 -Z 0 -z 1  -v circle -c black
n -t * -s 7  -x 64.496110000000002 -y 97.957890000000006 -Z 0 -z 1  -v circle -c black
n -t * -s 8  -x 28.563089999999999 -y 20.44857 -Z 0 -z 1  -v circle -c black
n -t * -s 9  -x 32.47148 -y 93.811170000000004 -Z 0 -z 1  -v circle -c black
n -t * -s 10  -x 51.772060000000003 -y 46.468519999999998 -Z 0 -z 2  -v circle -c black
n -t * -s 11  -x 72.124579999999995 -y 27.15645 -Z 0 -z 2  -v circle -c black
V -t * -v 1.0a5 -a 0
W -t * -x 100 -y 100
A -t * -n 1 -p 0 -o 0x7fffffff -c 30 -a 1
A -t * -h 1 -m 1073741823 -s 0
n -t 0 -s 10 -S COLOR -c red -o black -i red -I black
n -t 0 -s 11 -S COLOR -c red -o black -i red -I black
n -t 0.000000 -s 10 -x 51.772060 -y 46.468520 -U -2.072984 -V -1.858589 -T 15.347081
n -t 0.000000 -s 11 -x 72.124580 -y 27.156450 -U 0.918061 -V -1.451950 -T 17.228197
n -t 0.000000 -s 6 -x 82.016570 -y 35.079720 -U -0.780496 -V -0.625161 -T 12.673976
n -t 0.000000 -s 4 -x 51.216920 -y 22.286340 -U 0.022951 -V 0.999737 -T 24.188551
n -t 0.000000 -s 3 -x 87.406000 -y 39.058400 -U -0.043703 -V -0.999045 -T 26.068992
n -t 0.000000 -s 8 -x 28.563090 -y 20.448570 -U 0.606766 -V 0.794881 -T 14.942890
n -t 0.000000 -s 1 -x 69.776560 -y 83.303320 -U -0.333028 -V -0.942917 -T 54.063019
n -t 0.000000 -s 4 -x 51.216920 -y 22.286340 -U 0.022951 -V 0.999737 -T 19.188551
n -t 0.000000 -s 6 -x 82.016570 -y 35.079720 -U -0.780496 -V -0.625161 -T 7.673976
n -t 1.000000 -s 4 -x 51.239871 -y 23.286077 -U 0.000000 -V 0.000000 -T 0.000000
n -t 1.000000 -s 8 -x 29.169856 -y 21.243451 -U 0.000000 -V 0.000000 -T 0.000000
n -t 1.000000 -s 1 -x 69.443532 -y 82.360403 -U 0.000000 -V 0.000000 -T 0.000000
n -t 1.000000 -s 6 -x 81.236074 -y 34.454559 -U 0.000000 -V 0.000000 -T 0.000000
n -t 1.000000 -s 3 -x 87.362297 -y 38.059355 -U 0.000000 -V 0.000000 -T 0.000000
n -t 1.000000 -s 6 -x 81.236074 -y 34.454559 -U -0.683508 -V -0.729943 -T 11.987321
n -t 1.000000 -s 4 -x 51.239871 -y 23.286077 -U -0.072069 -V 0.997400 -T 21.379449
n -t 1.000000 -s 3 -x 87.362297 -y 38.059355 -U -0.006699 -V -0.999978 -T 26.497586
n -t 1.000000 -s 8 -x 29.169856 -y 21.243451 -U 0.569270 -V 0.822150 -T 11.219777
n -t 1.000000 -s 4 -x 51.239871 -y 23.286077 -U -0.072069 -V 0.997400 -T 16.379449
n -t 1.000000 -s 6 -x 81.236074 -y 34.454559 -U -0.683508 -V -0.729943 -T 6.987321
n -t 2.000000 -s 4 -x 51.167802 -y 24.283476 -U 0.000000 -V 0.000000 -T 0.000000
n -t 2.000000 -s 8 -x 29.739126 -y 22.065601 -U 0.000000 -V 0.000000 -T 0.000000
n -t 2.000000 -s 6 -x 80.552566 -y 33.724617 -U 0.000000 -V 0.000000 -T 0.000000
n -t 2.000000 -s 3 -x 87.355598 -y 37.059378 -U 0.000000 -V 0.000000 -T 0.000000
n -t 2.000000 -s 6 -x 80.552566 -y 33.724617 -U -0.571216 -V -0.820800 -T 11.540048
n -t 2.000000 -s 4 -x 51.167802 -y 24.283476 -U -0.188345 -V 0.982103 -T 18.804409
n -t 2.000000 -s 3 -x 87.355598 -y 37.059378 -U 0.027717 -V -0.999616 -T 26.959321
n -t 2.000000 -s 8 -x 29.739126 -y 22.065601 -U 0.496701 -V 0.867921 -T 7.539399
n -t 2.000000 -s 8 -x 29.739126 -y 22.065601 -U 0.622032 -V 0.782992 -T 17.388013
n -t 2.000000 -s 4 -x 51.167802 -y 24.283476 -U -0.188345 -V 0.982103 -T 13.804409
n -t 2.000000 -s 6 -x 80.552566 -y 33.724617 -U -0.571216 -V -0.820800 -T 6.540048
n -t 3.000000 -s 4 -x 50.979457 -y 25.265579 -U 0.000000 -V 0.000000 -T 0.000000
n -t 3.000000 -s 8 -x 30.361158 -y 22.848593 -U 0.000000 -V 0.000000 -T 0.000000
n -t 3.000000 -s 6 -x 79.981349 -y 32.903817 -U 0.000000 -V 0.000000 -T 0.000000
n -t 3.000000 -s 3 -x 87.383315 -y 36.059762 -U 0.000000 -V 0.000000 -T 0.000000
n -t 3.000000 -s 6 -x 79.981349 -y 32.903817 -U -0.450813 -V -0.892618 -T 11.318629
n -t 3.000000 -s 4 -x 50.979457 -y 25.265579 -U -0.328025 -V 0.944669 -T 16.542486
n -t 3.000000 -s 3 -x 87.383315 -y 36.059762 -U 0.059657 -V -0.998219 -T 27.450187
n -t 3.000000 -s 8 -x 30.361158 -y 22.848593 -U 0.259805 -V 0.965661 -T 4.040781
n -t 3.000000 -s 5 -x 5.984662 -y 26.699860 -U 0.999999 -V 0.001283 -T 39.568479
n -t 3.000000 -s 8 -x 30.361158 -y 22.848593 -U 0.594881 -V 0.803814 -T 13.651282
n -t 3.000000 -s 4 -x 50.979457 -y 25.265579 -U -0.328025 -V 0.944669 -T 11.542486
n -t 3.000000 -s 6 -x 79.981349 -y 32.903817 -U -0.450813 -V -0.892618 -T 6.318629
n -t 4.000000 -s 4 -x 50.651432 -y 26.210248 -U 0.000000 -V 0.000000 -T 0.000000
n -t 4.000000 -s 8 -x 30.956038 -y 23.652407 -U 0.000000 -V 0.000000 -T 0.000000
n -t 4.000000 -s 5 -x 6.984661 -y 26.701143 -U 0.000000 -V 0.000000 -T 0.000000
n -t 4.000000 -s 6 -x 79.530536 -y 32.011199 -U 0.000000 -V 0.000000 -T 0.000000
n -t 4.000000 -s 3 -x 87.442972 -y 35.061543 -U 0.000000 -V 0.000000 -T 0.000000
n -t 4.000000 -s 6 -x 79.530536 -y 32.011199 -U -0.330494 -V -0.943808 -T 11.297368
n -t 4.000000 -s 4 -x 50.651432 -y 26.210248 -U -0.488081 -V 0.872799 -T 14.692872
n -t 4.000000 -s 3 -x 87.442972 -y 35.061543 -U 0.089249 -V -0.996009 -T 27.966633
n -t 4.000000 -s 8 -x 30.956038 -y 23.652407 -U -0.793815 -V 0.608159 -T 2.038320
n -t 4.000000 -s 5 -x 6.984661 -y 26.701143 -U 0.998774 -V -0.049510 -T 36.540276
n -t 4.000000 -s 8 -x 30.956038 -y 23.652407 -U 0.548595 -V 0.836088 -T 9.939969
n -t 4.000000 -s 4 -x 50.651432 -y 26.210248 -U -0.488081 -V 0.872799 -T 9.692872
n -t 4.000000 -s 6 -x 79.530536 -y 32.011199 -U -0.330494 -V -0.943808 -T 6.297368
n -t 5.000000 -s 4 -x 50.163351 -y 27.083047 -U 0.000000 -V 0.000000 -T 0.000000
n -t 5.000000 -s 8 -x 31.504634 -y 24.488495 -U 0.000000 -V 0.000000 -T 0.000000
n -t 5.000000 -s 5 -x 7.983435 -y 26.651633 -U 0.000000 -V 0.000000 -T 0.000000
n -t 5.000000 -s 6 -x 79.200042 -y 31.067391 -U 0.000000 -V 0.000000 -T 0.000000
n -t 5.000000 -s 3 -x 87.532221 -y 34.065534 -U 0.000000 -V 0.000000 -T 0.000000
n -t 5.000000 -s 6 -x 79.200042 -y 31.067391 -U -0.217162 -V -0.976136 -T 11.443789
n -t 5.000000 -s 4 -x 50.163351 -y 27.083047 -U -0.655330 -V 0.755343 -T 13.361526
n -t 5.000000 -s 8 -x 31.504634 -y 24.488495 -U -0.945845 -V -0.324617 -T 4.482369
n -t 5.000000 -s 3 -x 87.532221 -y 34.065534 -U 0.116637 -V -0.993175 -T 28.505530
n -t 5.000000 -s 5 -x 7.983435 -y 26.651633 -U 0.994192 -V -0.107623 -T 33.618974
n -t 5.000000 -s 8 -x 31.504634 -y 24.488495 -U 0.450192 -V 0.892932 -T 6.289408
n -t 5.000000 -s 4 -x 50.163351 -y 27.083047 -U -0.655330 -V 0.755343 -T 8.361526
n -t 5.000000 -s 6 -x 79.200042 -y 31.067391 -U -0.217162 -V -0.976136 -T 6.443789
n -t 6.000000 -s 4 -x 49.508021 -y 27.838389 -U 0.000000 -V 0.000000 -T 0.000000
n -t 6.000000 -s 8 -x 31.954825 -y 25.381427 -U 0.000000 -V 0.000000 -T 0.000000
n -t 6.000000 -s 5 -x 8.977627 -y 26.544009 -U 0.000000 -V 0.000000 -T 0.000000
n -t 6.000000 -s 6 -x 78.982880 -y 30.091255 -U 0.000000 -V 0.000000 -T 0.000000
n -t 6.000000 -s 3 -x 87.648858 -y 33.072359 -U 0.000000 -V 0.000000 -T 0.000000
n -t 6.000000 -s 6 -x 78.982880 -y 30.091255 -U -0.115138 -V -0.993350 -T 11.724478
n -t 6.000000 -s 8 -x 31.954825 -y 25.381427 -U 0.596253 -V 0.802797 -T 12.376183
n -t 6.000000 -s 4 -x 49.508021 -y 27.838389 -U -0.964442 -V -0.264295 -T 25.212508
n -t 6.000000 -s 3 -x 87.648858 -y 33.072359 -U 0.141970 -V -0.989871 -T 29.064134
n -t 6.000000 -s 5 -x 8.977627 -y 26.544009 -U 0.984716 -V -0.174167 -T 30.827695
n -t 6.000000 -s 8 -x 31.954825 -y 25.381427 -U 0.596253 -V 0.802797 -T 7.376183
n -t 6.000000 -s 6 -x 78.982880 -y 30.091255 -U -0.115138 -V -0.993350 -T 6.724478
n -t 7.000000 -s 8 -x 32.551078 -y 26.184224 -U 0.000000 -V 0.000000 -T 0.000000
n -t 7.000000 -s 4 -x 48.543579 -y 27.574095 -U 0.000000 -V 0.000000 -T 0.000000
n -t 7.000000 -s 5 -x 9.962343 -y 26.369843 -U 0.000000 -V 0.000000 -T 0.000000
n -t 7.000000 -s 6 -x 78.867742 -y 29.097905 -U 0.000000 -V 0.000000 -T 0.000000
n -t 7.000000 -s 3 -x 87.790827 -y 32.082488 -U 0.000000 -V 0.000000 -T 0.000000
n -t 7.000000 -s 8 -x 32.551078 -y 26.184224 -U 0.543518 -V 0.839398 -T 8.665946
n -t 7.000000 -s 6 -x 78.867742 -y 29.097905 -U -0.026156 -V -0.999658 -T 12.109248
n -t 7.000000 -s 4 -x 48.543579 -y 27.574095 -U -0.951091 -V -0.308912 -T 26.731986
n -t 7.000000 -s 3 -x 87.790827 -y 32.082488 -U 0.165395 -V -0.986227 -T 29.640044
n -t 7.000000 -s 5 -x 9.962343 -y 26.369843 -U 0.968202 -V -0.250168 -T 28.195374
n -t 7.000000 -s 8 -x 32.551078 -y 26.184224 -U 0.543518 -V 0.839398 -T 3.665946
n -t 7.000000 -s 4 -x 48.543579 -y 27.574095 -U 0.000000 -V 0.000000 -T 0.000000
n -t 7.000000 -s 5 -x 9.962343 -y 26.369843 -U 0.000000 -V 0.000000 -T 0.000000
n -t 7.000000 -s 6 -x 78.867742 -y 29.097905 -U -0.026156 -V -0.999658 -T 7.109248
n -t 8.000000 -s 8 -x 33.094596 -y 27.023622 -U 0.000000 -V 0.000000 -T 0.000000
n -t 8.000000 -s 4 -x 48.543579 -y 27.574095 -U 0.000000 -V 0.000000 -T 0.000000
n -t 8.000000 -s 5 -x 9.962343 -y 26.369843 -U 0.000000 -V 0.000000 -T 0.000000
n -t 8.000000 -s 6 -x 78.841586 -y 28.098248 -U 0.000000 -V 0.000000 -T 0.000000
n -t 8.000000 -s 3 -x 87.956222 -y 31.096261 -U 0.000000 -V 0.000000 -T 0.000000
n -t 8.000000 -s 8 -x 33.094596 -y 27.023622 -U 0.543518 -V 0.839398 -T 7.665946
n -t 8.000000 -s 6 -x 78.841586 -y 28.098248 -U 0.049907 -V -0.998754 -T 12.573064
n -t 8.000000 -s 4 -x 48.543579 -y 27.574095 -U -0.951091 -V -0.308912 -T 26.731986
n -t 8.000000 -s 3 -x 87.956222 -y 31.096261 -U 0.187058 -V -0.982349 -T 30.231160
n -t 8.000000 -s 5 -x 9.962343 -y 26.369843 -U 0.968202 -V -0.250168 -T 28.195374
n -t 8.000000 -s 8 -x 33.094596 -y 27.023622 -U 0.416026 -V 0.909353 -T 0.032359
n -t 8.000000 -s 4 -x 48.543579 -y 27.574095 -U 0.000000 -V 0.000000 -T 0.000000
n -t 8.000000 -s 5 -x 9.962343 -y 26.369843 -U 0.000000 -V 0.000000 -T 0.000000
n -t 8.000000 -s 6 -x 78.841586 -y 28.098248 -U 0.049907 -V -0.998754 -T 7.573064
n -t 9.000000 -s 8 -x 33.108058 -y 27.053048 -U 0.000000 -V 0.000000 -T 0.000000
n -t 9.000000 -s 4 -x 48.543579 -y 27.574095 -U 0.000000 -V 0.000000 -T 0.000000
n -t 9.000000 -s 5 -x 9.962343 -y 26.369843 -U 0.000000 -V 0.000000 -T 0.000000
n -t 9.000000 -s 6 -x 78.891493 -y 27.099494 -U 0.000000 -V 0.000000 -T 0.000000
n -t 9.000000 -s 3 -x 88.143280 -y 30.113912 -U 0.000000 -V 0.000000 -T 0.000000
n -t 9.000000 -s 8 -x 33.108058 -y 27.053048 -U 0.544034 -V 0.839063 -T 7.633931
n -t 9.000000 -s 6 -x 78.891493 -y 27.099494 -U 0.114203 -V -0.993457 -T 13.096276
n -t 9.000000 -s 4 -x 48.543579 -y 27.574095 -U -0.951091 -V -0.308912 -T 26.731986
n -t 9.000000 -s 3 -x 88.143280 -y 30.113912 -U 0.207448 -V -0.978246 -T 30.783575
n -t 9.000000 -s 5 -x 9.962343 -y 26.369843 -U 0.968202 -V -0.250168 -T 28.195374
n -t 9.000000 -s 4 -x 48.543579 -y 27.574095 -U 0.000000 -V 0.000000 -T 0.000000
n -t 9.000000 -s 5 -x 9.962343 -y 26.369843 -U 0.000000 -V 0.000000 -T 0.000000
n -t 9.000000 -s 6 -x 78.891493 -y 27.099494 -U 0.114203 -V -0.993457 -T 8.096276
n -t 10.000000 -s 8 -x 33.652092 -y 27.892111 -U 0.000000 -V 0.000000 -T 0.000000
n -t 10.000000 -s 4 -x 48.543579 -y 27.574095 -U 0.000000 -V 0.000000 -T 0.000000
n -t 10.000000 -s 5 -x 9.962343 -y 26.369843 -U 0.000000 -V 0.000000 -T 0.000000
n -t 10.000000 -s 6 -x 79.005696 -y 26.106036 -U 0.000000 -V 0.000000 -T 0.000000
n -t 10.000000 -s 3 -x 88.350728 -y 29.135666 -U 0.000000 -V 0.000000 -T 0.000000
n -t 10.000000 -s 8 -x 33.652092 -y 27.892111 -U 0.544034 -V 0.839063 -T 6.633931
n -t 10.000000 -s 6 -x 79.005696 -y 26.106036 -U 0.168289 -V -0.985738 -T 13.663965
n -t 10.000000 -s 4 -x 48.543579 -y 27.574095 -U -0.951091 -V -0.308912 -T 26.731986
n -t 10.000000 -s 3 -x 88.350728 -y 29.135666 -U 0.236652 -V -0.971594 -T 29.987476
n -t 10.000000 -s 5 -x 9.962343 -y 26.369843 -U 0.968202 -V -0.250168 -T 28.195374
n -t 10.000000 -s 4 -x 48.543579 -y 27.574095 -U 0.000000 -V 0.000000 -T 0.000000
n -t 10.000000 -s 5 -x 9.962343 -y 26.369843 -U 0.000000 -V 0.000000 -T 0.000000
n -t 10.000000 -s 6 -x 79.005696 -y 26.106036 -U 0.168289 -V -0.985738 -T 8.663965
n -t 11.000000 -s 8 -x 34.196125 -y 28.731175 -U 0.000000 -V 0.000000 -T 0.000000
n -t 11.000000 -s 4 -x 48.543579 -y 27.574095 -U 0.000000 -V 0.000000 -T 0.000000
n -t 11.000000 -s 5 -x 9.962343 -y 26.369843 -U 0.000000 -V 0.000000 -T 0.000000
n -t 11.000000 -s 6 -x 79.173985 -y 25.120299 -U 0.000000 -V 0.000000 -T 0.000000
n -t 11.000000 -s 3 -x 88.587380 -y 28.164071 -U 0.000000 -V 0.000000 -T 0.000000
n -t 11.000000 -s 8 -x 34.196125 -y 28.731175 -U -0.887970 -V -0.459901 -T 5.886332
n -t 11.000000 -s 6 -x 79.173985 -y 25.120299 -U 0.213759 -V -0.976887 -T 14.265011
n -t 11.000000 -s 3 -x 88.587380 -y 28.164071 -U 0.266203 -V -0.963917 -T 29.218356
n -t 11.000000 -s 5 -x 9.962343 -y 26.369843 -U 0.318315 -V -0.947985 -T 15.282869
n -t 11.000000 -s 4 -x 48.543579 -y 27.574095 -U -0.780232 -V -0.625490 -T 25.087836
n -t 11.000000 -s 8 -x 34.196125 -y 28.731175 -U -0.887970 -V -0.459901 -T 0.886332
n -t 11.000000 -s 5 -x 9.962343 -y 26.369843 -U 0.000000 -V 0.000000 -T 0.000000
n -t 11.000000 -s 4 -x 48.543579 -y 27.574095 -U 0.000000 -V 0.000000 -T 0.000000
n -t 11.000000 -s 6 -x 79.173985 -y 25.120299 -U 0.213759 -V -0.976887 -T 9.265011
n -t 12.000000 -s 8 -x 33.409089 -y 28.323550 -U 0.000000 -V 0.000000 -T 0.000000
n -t 12.000000 -s 5 -x 9.962343 -y 26.369843 -U 0.000000 -V 0.000000 -T 0.000000
n -t 12.000000 -s 4 -x 48.543579 -y 27.574095 -U 0.000000 -V 0.000000 -T 0.000000
n -t 12.000000 -s 6 -x 79.387744 -y 24.143412 -U 0.000000 -V 0.000000 -T 0.000000
n -t 12.000000 -s 3 -x 88.853583 -y 27.200154 -U 0.000000 -V 0.000000 -T 0.000000
n -t 12.000000 -s 8 -x 33.409089 -y 28.323550 -U -0.887970 -V -0.459901 -T 5.000000
n -t 12.000000 -s 6 -x 79.387744 -y 24.143412 -U 0.252066 -V -0.967710 -T 14.891198
n -t 12.000000 -s 5 -x 9.962343 -y 26.369843 -U 0.318315 -V -0.947985 -T 15.282869
n -t 12.000000 -s 3 -x 88.853583 -y 27.200154 -U 0.296029 -V -0.955179 -T 28.476500
n -t 12.000000 -s 4 -x 48.543579 -y 27.574095 -U -0.780232 -V -0.625490 -T 25.087836
n -t 12.000000 -s 8 -x 33.409089 -y 28.323550 -U -0.842866 -V -0.538124 -T 2.727015
n -t 12.000000 -s 5 -x 9.962343 -y 26.369843 -U 0.000000 -V 0.000000 -T 0.000000
n -t 12.000000 -s 4 -x 48.543579 -y 27.574095 -U 0.000000 -V 0.000000 -T 0.000000
n -t 12.000000 -s 6 -x 79.387744 -y 24.143412 -U 0.252066 -V -0.967710 -T 9.891198
n -t 13.000000 -s 8 -x 32.566223 -y 27.785426 -U 0.000000 -V 0.000000 -T 0.000000
n -t 13.000000 -s 5 -x 9.962343 -y 26.369843 -U 0.000000 -V 0.000000 -T 0.000000
n -t 13.000000 -s 4 -x 48.543579 -y 27.574095 -U 0.000000 -V 0.000000 -T 0.000000
n -t 13.000000 -s 6 -x 79.639810 -y 23.175702 -U 0.000000 -V 0.000000 -T 0.000000
n -t 13.000000 -s 3 -x 89.149612 -y 26.244975 -U 0.000000 -V 0.000000 -T 0.000000
n -t 13.000000 -s 8 -x 32.566223 -y 27.785426 -U -0.898103 -V -0.439785 -T 4.005093
n -t 13.000000 -s 6 -x 79.639810 -y 23.175702 -U 0.284464 -V -0.958687 -T 15.536463
n -t 13.000000 -s 5 -x 9.962343 -y 26.369843 -U 0.318315 -V -0.947985 -T 15.282869
n -t 13.000000 -s 3 -x 89.149612 -y 26.244975 -U 0.326052 -V -0.945352 -T 27.762125
n -t 13.000000 -s 4 -x 48.543579 -y 27.574095 -U -0.780232 -V -0.625490 -T 25.087836
n -t 13.000000 -s 8 -x 32.566223 -y 27.785426 -U -0.816324 -V -0.577594 -T 4.485142
n -t 13.000000 -s 5 -x 9.962343 -y 26.369843 -U 0.000000 -V 0.000000 -T 0.000000
n -t 13.000000 -s 4 -x 48.543579 -y 27.574095 -U 0.000000 -V 0.000000 -T 0.000000
n -t 13.000000 -s 6 -x 79.639810 -y 23.175702 -U 0.284464 -V -0.958687 -T 10.536463
n -t 14.000000 -s 8 -x 31.749899 -y 27.207832 -U 0.000000 -V 0.000000 -T 0.000000
n -t 14.000000 -s 5 -x 9.962343 -y 26.369843 -U 0.000000 -V 0.000000 -T 0.000000
n -t 14.000000 -s 4 -x 48.543579 -y 27.574095 -U 0.000000 -V 0.000000 -T 0.000000
n -t 14.000000 -s 6 -x 79.924274 -y 22.217015 -U 0.000000 -V 0.000000 -T 0.000000
n -t 14.000000 -s 3 -x 89.475664 -y 25.299624 -U 0.000000 -V 0.000000 -T 0.000000
n -t 14.000000 -s 8 -x 31.749899 -y 27.207832 -U -0.920092 -V -0.391703 -T 3.022156
n -t 14.000000 -s 6 -x 79.924274 -y 22.217015 -U 0.311994 -V -0.950084 -T 16.196321
n -t 14.000000 -s 5 -x 9.962343 -y 26.369843 -U 0.318315 -V -0.947985 -T 15.282869
n -t 14.000000 -s 3 -x 89.475664 -y 25.299624 -U 0.356187 -V -0.934415 -T 27.075375
n -t 14.000000 -s 4 -x 48.543579 -y 27.574095 -U -0.780232 -V -0.625490 -T 25.087836
n -t 14.000000 -s 8 -x 31.749899 -y 27.207832 -U -0.799580 -V -0.600560 -T 6.255425
n -t 14.000000 -s 6 -x 79.924274 -y 22.217015 -U 0.311994 -V -0.950084 -T 11.196321
n -t 15.000000 -s 8 -x 30.950319 -y 26.607272 -U 0.000000 -V 0.000000 -T 0.000000
n -t 15.000000 -s 5 -x 10.280657 -y 25.421857 -U 0.000000 -V 0.000000 -T 0.000000
n -t 15.000000 -s 4 -x 47.763347 -y 26.948605 -U 0.000000 -V 0.000000 -T 0.000000
n -t 15.000000 -s 6 -x 80.236269 -y 21.266932 -U 0.000000 -V 0.000000 -T 0.000000
n -t 15.000000 -s 3 -x 89.831852 -y 24.365209 -U 0.000000 -V 0.000000 -T 0.000000
n -t 15.000000 -s 5 -x 10.280657 -y 25.421857 -U 0.835702 -V -0.549183 -T 12.440609
n -t 15.000000 -s 6 -x 80.236269 -y 21.266932 -U 0.335512 -V -0.942036 -T 16.867436
n -t 15.000000 -s 8 -x 30.950319 -y 26.607272 -U -0.740481 -V -0.672077 -T 32.971999
n -t 15.000000 -s 3 -x 89.831852 -y 24.365209 -U 0.385131 -V -0.922862 -T 26.401792
n -t 15.000000 -s 4 -x 47.763347 -y 26.948605 -U -0.769207 -V -0.638999 -T 35.212939
n -t 15.000000 -s 5 -x 10.280657 -y 25.421857 -U 0.835702 -V -0.549183 -T 7.440609
n -t 15.000000 -s 6 -x 80.236269 -y 21.266932 -U 0.335512 -V -0.942036 -T 11.867436
n -t 16.000000 -s 5 -x 11.116360 -y 24.872675 -U 0.000000 -V 0.000000 -T 0.000000
n -t 16.000000 -s 8 -x 30.209838 -y 25.935195 -U 0.000000 -V 0.000000 -T 0.000000
n -t 16.000000 -s 4 -x 46.994140 -y 26.309605 -U 0.000000 -V 0.000000 -T 0.000000
n -t 16.000000 -s 6 -x 80.571781 -y 20.324896 -U 0.000000 -V 0.000000 -T 0.000000
n -t 16.000000 -s 3 -x 90.216983 -y 23.442347 -U 0.000000 -V 0.000000 -T 0.000000
n -t 16.000000 -s 5 -x 11.116360 -y 24.872675 -U 0.787130 -V -0.616787 -T 11.232512
n -t 16.000000 -s 6 -x 80.571781 -y 20.324896 -U 0.355711 -V -0.934596 -T 17.547311
n -t 16.000000 -s 8 -x 30.209838 -y 25.935195 -U -0.740601 -V -0.671945 -T 32.938314
n -t 16.000000 -s 3 -x 90.216983 -y 23.442347 -U 0.385131 -V -0.922862 -T 25.401792
n -t 16.000000 -s 4 -x 46.994140 -y 26.309605 -U -0.768545 -V -0.639796 -T 35.178602
n -t 16.000000 -s 5 -x 11.116360 -y 24.872675 -U 0.787130 -V -0.616787 -T 6.232512
n -t 16.000000 -s 6 -x 80.571781 -y 20.324896 -U 0.355711 -V -0.934596 -T 12.547311
n -t 17.000000 -s 5 -x 11.903490 -y 24.255888 -U 0.000000 -V 0.000000 -T 0.000000
n -t 17.000000 -s 8 -x 29.469236 -y 25.263251 -U 0.000000 -V 0.000000 -T 0.000000
n -t 17.000000 -s 4 -x 46.225595 -y 25.669809 -U 0.000000 -V 0.000000 -T 0.000000
n -t 17.000000 -s 6 -x 80.927492 -y 19.390300 -U 0.000000 -V 0.000000 -T 0.000000
n -t 17.000000 -s 3 -x 90.602114 -y 22.519485 -U 0.000000 -V 0.000000 -T 0.000000
n -t 17.000000 -s 5 -x 11.903490 -y 24.255888 -U 0.787130 -V -0.616787 -T 10.232512
n -t 17.000000 -s 6 -x 80.927492 -y 19.390300 -U 0.373155 -V -0.927769 -T 18.234061
n -t 17.000000 -s 8 -x 29.469236 -y 25.263251 -U -0.740601 -V -0.671945 -T 31.938314
n -t 17.000000 -s 3 -x 90.602114 -y 22.519485 -U 0.385131 -V -0.922862 -T 24.401792
n -t 17.000000 -s 4 -x 46.225595 -y 25.669809 -U -0.768545 -V -0.639796 -T 34.178602
n -t 17.000000 -s 5 -x 11.903490 -y 24.255888 -U 0.787130 -V -0.616787 -T 5.232512
n -t 17.000000 -s 6 -x 80.927492 -y 19.390300 -U 0.373155 -V -0.927769 -T 13.234061
n -t 18.000000 -s 5 -x 12.690620 -y 23.639101 -U 0.000000 -V 0.000000 -T 0.000000
n -t 18.000000 -s 8 -x 28.728635 -y 24.591306 -U 0.000000 -V 0.000000 -T 0.000000
n -t 18.000000 -s 4 -x 45.457050 -y 25.030013 -U 0.000000 -V 0.000000 -T 0.000000
n -t 18.000000 -s 6 -x 81.300647 -y 18.462531 -U 0.000000 -V 0.000000 -T 0.000000
n -t 18.000000 -s 3 -x 90.987245 -y 21.596623 -U 0.000000 -V 0.000000 -T 0.000000
n -t 18.000000 -s 5 -x 12.690620 -y 23.639101 -U 0.787130 -V -0.616787 -T 9.232512
n -t 18.000000 -s 6 -x 81.300647 -y 18.462531 -U 0.376876 -V -0.926264 -T 17.619777
n -t 18.000000 -s 8 -x 28.728635 -y 24.591306 -U -0.740601 -V -0.671945 -T 30.938314
n -t 18.000000 -s 3 -x 90.987245 -y 21.596623 -U 0.385131 -V -0.922862 -T 23.401792
n -t 18.000000 -s 4 -x 45.457050 -y 25.030013 -U -0.768545 -V -0.639796 -T 33.178602
n -t 18.000000 -s 5 -x 12.690620 -y 23.639101 -U 0.787130 -V -0.616787 -T 4.232512
n -t 18.000000 -s 8 -x 28.728635 -y 24.591306 -U 0.000000 -V 0.000000 -T 0.000000
n -t 18.000000 -s 4 -x 45.457050 -y 25.030013 -U 0.000000 -V 0.000000 -T 0.000000
n -t 18.000000 -s 6 -x 81.300647 -y 18.462531 -U 0.376876 -V -0.926264 -T 12.619777
n -t 19.000000 -s 5 -x 13.477750 -y 23.022314 -U 0.000000 -V 0.000000 -T 0.000000
n -t 19.000000 -s 8 -x 28.728635 -y 24.591306 -U 0.000000 -V 0.000000 -T 0.000000
n -t 19.000000 -s 4 -x 45.457050 -y 25.030013 -U 0.000000 -V 0.000000 -T 0.000000
n -t 19.000000 -s 6 -x 81.677523 -y 17.536267 -U 0.000000 -V 0.000000 -T 0.000000
n -t 19.000000 -s 3 -x 91.372376 -y 20.673761 -U 0.000000 -V 0.000000 -T 0.000000
n -t 19.000000 -s 5 -x 13.477750 -y 23.022314 -U 0.787130 -V -0.616787 -T 8.232512
n -t 19.000000 -s 6 -x 81.677523 -y 17.536267 -U 0.376876 -V -0.926264 -T 16.619777
n -t 19.000000 -s 8 -x 28.728635 -y 24.591306 -U -0.740601 -V -0.671945 -T 30.938314
n -t 19.000000 -s 3 -x 91.372376 -y 20.673761 -U 0.385131 -V -0.922862 -T 22.401792
n -t 19.000000 -s 4 -x 45.457050 -y 25.030013 -U -0.768545 -V -0.639796 -T 33.178602
n -t 19.000000 -s 5 -x 13.477750 -y 23.022314 -U 0.787130 -V -0.616787 -T 3.232512
n -t 19.000000 -s 8 -x 28.728635 -y 24.591306 -U 0.000000 -V 0.000000 -T 0.000000
n -t 19.000000 -s 4 -x 45.457050 -y 25.030013 -U 0.000000 -V 0.000000 -T 0.000000
n -t 19.000000 -s 6 -x 81.677523 -y 17.536267 -U 0.376876 -V -0.926264 -T 11.619777
n -t 20.000000 -s 5 -x 14.264881 -y 22.405528 -U 0.000000 -V 0.000000 -T 0.000000
n -t 20.000000 -s 8 -x 28.728635 -y 24.591306 -U 0.000000 -V 0.000000 -T 0.000000
n -t 20.000000 -s 4 -x 45.457050 -y 25.030013 -U 0.000000 -V 0.000000 -T 0.000000
n -t 20.000000 -s 6 -x 82.054400 -y 16.610003 -U 0.000000 -V 0.000000 -T 0.000000
n -t 20.000000 -s 3 -x 91.757507 -y 19.750899 -U 0.000000 -V 0.000000 -T 0.000000
n -t 20.000000 -s 5 -x 14.264881 -y 22.405528 -U 0.787130 -V -0.616787 -T 7.232512
n -t 20.000000 -s 6 -x 82.054400 -y 16.610003 -U 0.376876 -V -0.926264 -T 15.619777
n -t 20.000000 -s 8 -x 28.728635 -y 24.591306 -U -0.740601 -V -0.671945 -T 30.938314
n -t 20.000000 -s 3 -x 91.757507 -y 19.750899 -U 0.385131 -V -0.922862 -T 21.401792
n -t 20.000000 -s 4 -x 45.457050 -y 25.030013 -U -0.768545 -V -0.639796 -T 33.178602
n -t 20.000000 -s 5 -x 14.264881 -y 22.405528 -U 0.787130 -V -0.616787 -T 2.232512
n -t 20.000000 -s 8 -x 28.728635 -y 24.591306 -U 0.000000 -V 0.000000 -T 0.000000
n -t 20.000000 -s 4 -x 45.457050 -y 25.030013 -U 0.000000 -V 0.000000 -T 0.000000
n -t 20.000000 -s 6 -x 82.054400 -y 16.610003 -U 0.376876 -V -0.926264 -T 10.619777
n -t 21.000000 -s 10 -x 19.957810 -y 17.944610 -U 2.176635 -V 1.827709 -T 17.717322
n -t 21.000000 -s 5 -x 15.052011 -y 21.788741 -U 0.000000 -V 0.000000 -T 0.000000
n -t 21.000000 -s 8 -x 28.728635 -y 24.591306 -U 0.000000 -V 0.000000 -T 0.000000
n -t 21.000000 -s 4 -x 45.457050 -y 25.030013 -U 0.000000 -V 0.000000 -T 0.000000
n -t 21.000000 -s 6 -x 82.431276 -y 15.683740 -U 0.000000 -V 0.000000 -T 0.000000
n -t 21.000000 -s 3 -x 92.142638 -y 18.828037 -U 0.000000 -V 0.000000 -T 0.000000
n -t 21.000000 -s 5 -x 15.052011 -y 21.788741 -U 0.787130 -V -0.616787 -T 6.232512
n -t 21.000000 -s 6 -x 82.431276 -y 15.683740 -U 0.376876 -V -0.926264 -T 14.619777
n -t 21.000000 -s 8 -x 28.728635 -y 24.591306 -U -0.740601 -V -0.671945 -T 30.938314
n -t 21.000000 -s 3 -x 92.142638 -y 18.828037 -U 0.385131 -V -0.922862 -T 20.401792
n -t 21.000000 -s 4 -x 45.457050 -y 25.030013 -U -0.768545 -V -0.639796 -T 33.178602
n -t 21.000000 -s 5 -x 15.052011 -y 21.788741 -U 0.787130 -V -0.616787 -T 1.232512
n -t 21.000000 -s 8 -x 28.728635 -y 24.591306 -U 0.000000 -V 0.000000 -T 0.000000
n -t 21.000000 -s 4 -x 45.457050 -y 25.030013 -U 0.000000 -V 0.000000 -T 0.000000
n -t 21.000000 -s 6 -x 82.431276 -y 15.683740 -U 0.376876 -V -0.926264 -T 9.619777
n -t 22.000000 -s 5 -x 15.839141 -y 21.171954 -U 0.000000 -V 0.000000 -T 0.000000
n -t 22.000000 -s 8 -x 28.728635 -y 24.591306 -U 0.000000 -V 0.000000 -T 0.000000
n -t 22.000000 -s 4 -x 45.457050 -y 25.030013 -U 0.000000 -V 0.000000 -T 0.000000
n -t 22.000000 -s 6 -x 82.808152 -y 14.757476 -U 0.000000 -V 0.000000 -T 0.000000
n -t 22.000000 -s 3 -x 92.527769 -y 17.905176 -U 0.000000 -V 0.000000 -T 0.000000
n -t 22.000000 -s 5 -x 15.839141 -y 21.171954 -U 0.787130 -V -0.616787 -T 5.232512
n -t 22.000000 -s 6 -x 82.808152 -y 14.757476 -U 0.376876 -V -0.926264 -T 13.619777
n -t 22.000000 -s 8 -x 28.728635 -y 24.591306 -U -0.740601 -V -0.671945 -T 30.938314
n -t 22.000000 -s 3 -x 92.527769 -y 17.905176 -U 0.385131 -V -0.922862 -T 19.401792
n -t 22.000000 -s 4 -x 45.457050 -y 25.030013 -U -0.768545 -V -0.639796 -T 33.178602
n -t 22.000000 -s 5 -x 15.839141 -y 21.171954 -U 0.976165 -V -0.217031 -T 1.449018
n -t 22.000000 -s 8 -x 28.728635 -y 24.591306 -U 0.000000 -V 0.000000 -T 0.000000
n -t 22.000000 -s 4 -x 45.457050 -y 25.030013 -U 0.000000 -V 0.000000 -T 0.000000
n -t 22.000000 -s 6 -x 82.808152 -y 14.757476 -U 0.376876 -V -0.926264 -T 8.619777
n -t 23.000000 -s 5 -x 16.815306 -y 20.954923 -U 0.000000 -V 0.000000 -T 0.000000
n -t 23.000000 -s 8 -x 28.728635 -y 24.591306 -U 0.000000 -V 0.000000 -T 0.000000
n -t 23.000000 -s 4 -x 45.457050 -y 25.030013 -U 0.000000 -V 0.000000 -T 0.000000
n -t 23.000000 -s 6 -x 83.185028 -y 13.831212 -U 0.000000 -V 0.000000 -T 0.000000
n -t 23.000000 -s 3 -x 92.912900 -y 16.982314 -U 0.000000 -V 0.000000 -T 0.000000
n -t 23.000000 -s 8 -x 28.728635 -y 24.591306 -U -0.796999 -V -0.603981 -T 11.004814
n -t 23.000000 -s 6 -x 83.185028 -y 13.831212 -U 0.376876 -V -0.926264 -T 12.619777
n -t 23.000000 -s 5 -x 16.815306 -y 20.954923 -U -0.539822 -V -0.841779 -T 20.376418
n -t 23.000000 -s 3 -x 92.912900 -y 16.982314 -U 0.385131 -V -0.922862 -T 18.401792
n -t 23.000000 -s 4 -x 45.457050 -y 25.030013 -U -0.768545 -V -0.639796 -T 33.178602
n -t 23.000000 -s 8 -x 28.728635 -y 24.591306 -U -0.828028 -V -0.560687 -T 0.335029
n -t 23.000000 -s 5 -x 16.815306 -y 20.954923 -U 0.000000 -V 0.000000 -T 0.000000
n -t 23.000000 -s 4 -x 45.457050 -y 25.030013 -U 0.000000 -V 0.000000 -T 0.000000
n -t 23.000000 -s 6 -x 83.185028 -y 13.831212 -U 0.376876 -V -0.926264 -T 7.619777
n -t 24.000000 -s 11 -x 87.941120 -y 2.141971 -U 0.586152 -V 2.597211 -T 9.150541
n -t 24.000000 -s 8 -x 28.451221 -y 24.403460 -U 0.000000 -V 0.000000 -T 0.000000
n -t 24.000000 -s 5 -x 16.815306 -y 20.954923 -U 0.000000 -V 0.000000 -T 0.000000
n -t 24.000000 -s 4 -x 45.457050 -y 25.030013 -U 0.000000 -V 0.000000 -T 0.000000
n -t 24.000000 -s 6 -x 83.561904 -y 12.904949 -U 0.000000 -V 0.000000 -T 0.000000
n -t 24.000000 -s 3 -x 93.298031 -y 16.059452 -U 0.000000 -V 0.000000 -T 0.000000
n -t 24.000000 -s 8 -x 28.451221 -y 24.403460 -U -0.795988 -V -0.605312 -T 10.670275
n -t 24.000000 -s 6 -x 83.561904 -y 12.904949 -U 0.376876 -V -0.926264 -T 11.619777
n -t 24.000000 -s 5 -x 16.815306 -y 20.954923 -U -0.539822 -V -0.841779 -T 20.376418
n -t 24.000000 -s 3 -x 93.298031 -y 16.059452 -U -0.999122 -V 0.041901 -T 5.361619
n -t 24.000000 -s 4 -x 45.457050 -y 25.030013 -U -0.768545 -V -0.639796 -T 33.178602
n -t 24.000000 -s 5 -x 16.815306 -y 20.954923 -U 0.000000 -V 0.000000 -T 0.000000
n -t 24.000000 -s 4 -x 45.457050 -y 25.030013 -U 0.000000 -V 0.000000 -T 0.000000
n -t 24.000000 -s 3 -x 93.298031 -y 16.059452 -U -0.616226 -V -0.787569 -T 8.693093
n -t 24.000000 -s 6 -x 83.561904 -y 12.904949 -U 0.376876 -V -0.926264 -T 6.619777
n -t 25.000000 -s 8 -x 27.655233 -y 23.798148 -U 0.000000 -V 0.000000 -T 0.000000
n -t 25.000000 -s 5 -x 16.815306 -y 20.954923 -U 0.000000 -V 0.000000 -T 0.000000
n -t 25.000000 -s 4 -x 45.457050 -y 25.030013 -U 0.000000 -V 0.000000 -T 0.000000
n -t 25.000000 -s 6 -x 83.938780 -y 11.978685 -U 0.000000 -V 0.000000 -T 0.000000
n -t 25.000000 -s 3 -x 92.681804 -y 15.271882 -U 0.000000 -V 0.000000 -T 0.000000
n -t 25.000000 -s 8 -x 27.655233 -y 23.798148 -U 0.569294 -V 0.822134 -T 1.772578
n -t 25.000000 -s 6 -x 83.938780 -y 11.978685 -U 0.535341 -V -0.844636 -T 8.571153
n -t 25.000000 -s 3 -x 92.681804 -y 15.271882 -U -0.754893 -V 0.655847 -T 5.503468
n -t 25.000000 -s 5 -x 16.815306 -y 20.954923 -U 0.815547 -V 0.578691 -T 31.869626
n -t 25.000000 -s 4 -x 45.457050 -y 25.030013 -U -0.759842 -V 0.650108 -T 22.100265
n -t 25.000000 -s 5 -x 16.815306 -y 20.954923 -U 0.000000 -V 0.000000 -T 0.000000
n -t 25.000000 -s 4 -x 45.457050 -y 25.030013 -U 0.000000 -V 0.000000 -T 0.000000
n -t 25.000000 -s 3 -x 92.681804 -y 15.271882 -U -0.768265 -V -0.640132 -T 5.407683
n -t 25.000000 -s 6 -x 83.938780 -y 11.978685 -U 0.535341 -V -0.844636 -T 3.571153
n -t 25.000000 -s 3 -x 92.681804 -y 15.271882 -U 0.000000 -V 0.000000 -T 0.000000
n -t 26.000000 -s 5 -x 16.815306 -y 20.954923 -U 0.000000 -V 0.000000 -T 0.000000
n -t 26.000000 -s 4 -x 45.457050 -y 25.030013 -U 0.000000 -V 0.000000 -T 0.000000
n -t 26.000000 -s 3 -x 92.681804 -y 15.271882 -U -0.717761 -V -0.696289 -T 4.971542
n -t 26.000000 -s 6 -x 84.474121 -y 11.134049 -U 0.773805 -V -0.633424 -T 0.995442
n -t 26.000000 -s 3 -x 92.681804 -y 15.271882 -U 0.000000 -V 0.000000 -T 0.000000
n -t 27.000000 -s 8 -x 28.664352 -y 25.255444 -U 0.765820 -V 0.643055 -T 0.684456
n -t 27.000000 -s 5 -x 16.815306 -y 20.954923 -U 0.000000 -V 0.000000 -T 0.000000
n -t 27.000000 -s 4 -x 45.457050 -y 25.030013 -U 0.000000 -V 0.000000 -T 0.000000