n -t * -s 0  -x 72.603800000000007 -y 24.94117 -Z 0 -z 1  -v circle -c black
n -t * -s 1  -x 20.603110000000001 -y 80.457310000000007 -Z 0 -z 1  -v circle -c black
n -t * -s 2  -x 23.96743 -y 47.722589999999997 -Z 0 -z 1  -v circle -c black
n -t * -s 3  -x 77.807599999999994 -y 1.142163 -Z 0 -z 1  -v circle -c black
n -t * -s 4  -x 46.138190000000002 -y 48.295749999999998 -Z 0 -z 1  -v circle -c black
n -t * -s 5  -x 75.110460000000003 -y 68.419619999999995 -Z 0 -z 1  -v circle -c black
n -t * -s 6  -x 47.843060000000001 -y 80.865409999999997 -Z 0 -z 1  -v circle -c black
n -t * -s 7  -x 54.208039999999997 -y 11.55795 -Z 0 -z 1  -v circle -c black
n -t * -s 8  -x 58.959119999999999 -y 94.812839999999994 -Z 0 -z 1  -v circle -c black
n -t * -s 9  -x 3.321939 -y 27.648599999999998 -Z 0 -z 1  -v circle -c black
n -t * -s 10  -x 29.226179999999999 -y 57.197719999999997 -Z 0 -z 2  -v circle -c black
n -t * -s 11  -x 21.380849999999999 -y 48.452350000000003 -Z 0 -z 2  -v circle -c black
n -t * -s 12  -x 87.37115 -y 47.13053 -Z 0 -z 2  -v circle -c black
V -t * -v 1.0a5 -a 0
W -t * -x 100 -y 100
A -t * -n 1 -p 0 -o 0x7fffffff -c 30 -a 1
A -t * -h 1 -m 1073741823 -s 0
n -t 0 -s 10 -S COLOR -c red -o black -i red -I black
n -t 0 -s 11 -S COLOR -c red -o black -i red -I black
n -t 0 -s 12 -S COLOR -c red -o black -i red -I black
n -t 0.000000 -s 10 -x 29.226180 -y 57.197720 -U 1.642850 -V 0.798377 -T 3.995642
n -t 0.000000 -s 11 -x 21.380850 -y 48.452350 -U 2.246767 -V 1.234463 -T 18.971508
n -t 0.000000 -s 12 -x 87.371150 -y 47.130530 -U -1.014420 -V 0.587330 -T 80.249586
n -t 0.000000 -s 2 -x 23.967430 -y 47.722590 -U -0.962429 -V 0.271533 -T 2.687554
n -t 0.000000 -s 4 -x 46.138190 -y 48.295750 -U -0.467317 -V -0.884090 -T 5.927187
n -t 0.000000 -s 5 -x 75.110460 -y 68.419620 -U -0.254578 -V -0.967052 -T 7.390453
n -t 0.000000 -s 0 -x 72.603800 -y 24.941170 -U 0.077460 -V 0.996995 -T 8.071475
n -t 0.000000 -s 6 -x 47.843060 -y 80.865410 -U -0.425185 -V -0.905107 -T 10.524235
n -t 0.000000 -s 9 -x 3.321939 -y 27.648600 -U 0.506845 -V 0.862037 -T 7.727757
n -t 0.000000 -s 1 -x 20.603110 -y 80.457310 -U -0.517844 -V -0.855475 -T 10.657770
n -t 0.000000 -s 4 -x 46.138190 -y 48.295750 -U -0.884899 -V 0.465784 -T 14.111807
n -t 0.000000 -s 9 -x 3.321939 -y 27.648600 -U 0.000000 -V 0.000000 -T 0.000000
n -t 0.000000 -s 5 -x 75.110460 -y 68.419620 -U 0.499066 -V -0.866564 -T 19.567252
n -t 1.000000 -s 4 -x 45.253291 -y 48.761534 -U 0.000000 -V 0.000000 -T 0.000000
n -t 1.000000 -s 6 -x 47.417875 -y 79.960303 -U 0.000000 -V 0.000000 -T 0.000000
n -t 1.000000 -s 1 -x 20.085266 -y 79.601835 -U 0.000000 -V 0.000000 -T 0.000000
n -t 1.000000 -s 2 -x 23.005001 -y 47.994123 -U 0.000000 -V 0.000000 -T 0.000000
n -t 1.000000 -s 9 -x 3.321939 -y 27.648600 -U 0.000000 -V 0.000000 -T 0.000000
n -t 1.000000 -s 5 -x 75.609526 -y 67.553056 -U 0.000000 -V 0.000000 -T 0.000000
n -t 1.000000 -s 0 -x 72.681260 -y 25.938165 -U 0.000000 -V 0.000000 -T 0.000000
n -t 1.000000 -s 2 -x 23.005001 -y 47.994123 -U -0.962429 -V 0.271533 -T 1.687554
n -t 1.000000 -s 4 -x 45.253291 -y 48.761534 -U -0.049277 -V -0.998785 -T 4.913541
n -t 1.000000 -s 5 -x 75.609526 -y 67.553056 -U -0.512175 -V -0.858881 -T 6.628461
n -t 1.000000 -s 6 -x 47.417875 -y 79.960303 -U -0.294077 -V -0.955782 -T 8.183950
n -t 1.000000 -s 0 -x 72.681260 -y 25.938165 -U -0.060988 -V 0.998139 -T 7.651802
n -t 1.000000 -s 1 -x 20.085266 -y 79.601835 -U -0.410339 -V -0.911933 -T 8.184376
n -t 1.000000 -s 9 -x 3.321939 -y 27.648600 -U 0.506845 -V 0.862037 -T 7.727757
n -t 1.000000 -s 4 -x 45.253291 -y 48.761534 -U -0.841510 -V 0.540242 -T 12.093395
n -t 1.000000 -s 9 -x 3.321939 -y 27.648600 -U 0.000000 -V 0.000000 -T 0.000000
n -t 1.000000 -s 5 -x 75.609526 -y 67.553056 -U 0.276756 -V -0.960940 -T 13.282957
n -t 1.000000 -s 5 -x 75.609526 -y 67.553056 -U 0.476391 -V -0.879234 -T 17.559641
n -t 2.000000 -s 4 -x 44.411782 -y 49.301775 -U 0.000000 -V 0.000000 -T 0.000000
n -t 2.000000 -s 6 -x 47.123798 -y 79.004522 -U 0.000000 -V 0.000000 -T 0.000000
n -t 2.000000 -s 1 -x 19.674926 -y 78.689902 -U 0.000000 -V 0.000000 -T 0.000000
n -t 2.000000 -s 2 -x 22.042572 -y 48.265656 -U 0.000000 -V 0.000000 -T 0.000000
n -t 2.000000 -s 9 -x 3.321939 -y 27.648600 -U 0.000000 -V 0.000000 -T 0.000000
n -t 2.000000 -s 5 -x 76.085917 -y 66.673823 -U 0.000000 -V 0.000000 -T 0.000000
n -t 2.000000 -s 0 -x 72.620272 -y 26.936304 -U 0.000000 -V 0.000000 -T 0.000000
n -t 2.000000 -s 2 -x 22.042572 -y 48.265656 -U -0.962429 -V 0.271533 -T 0.687554
n -t 2.000000 -s 6 -x 47.123798 -y 79.004522 -U -0.077190 -V -0.997016 -T 6.086070
n -t 2.000000 -s 4 -x 44.411782 -y 49.301775 -U 0.434384 -V -0.900728 -T 5.161867
n -t 2.000000 -s 5 -x 76.085917 -y 66.673823 -U -0.756287 -V -0.654240 -T 6.460167
n -t 2.000000 -s 1 -x 19.674926 -y 78.689902 -U -0.221237 -V -0.975220 -T 5.899481
n -t 2.000000 -s 0 -x 72.620272 -y 26.936304 -U -0.192818 -V 0.981235 -T 7.364957
n -t 2.000000 -s 9 -x 3.321939 -y 27.648600 -U 0.506845 -V 0.862037 -T 7.727757
n -t 2.000000 -s 6 -x 47.123798 -y 79.004522 -U -0.497773 -V -0.867307 -T 15.149165
n -t 2.000000 -s 4 -x 44.411782 -y 49.301775 -U -0.781740 -V 0.623604 -T 10.222319
n -t 2.000000 -s 9 -x 3.321939 -y 27.648600 -U 0.000000 -V 0.000000 -T 0.000000
n -t 2.000000 -s 5 -x 76.085917 -y 66.673823 -U 0.189913 -V -0.981801 -T 11.506982
n -t 2.000000 -s 5 -x 76.085917 -y 66.673823 -U 0.450015 -V -0.893021 -T 15.569091
n -t 3.000000 -s 6 -x 46.626025 -y 78.137214 -U 0.000000 -V 0.000000 -T 0.000000
n -t 3.000000 -s 4 -x 43.630041 -y 49.925379 -U 0.000000 -V 0.000000 -T 0.000000
n -t 3.000000 -s 1 -x 19.453690 -y 77.714682 -U 0.000000 -V 0.000000 -T 0.000000
n -t 3.000000 -s 2 -x 21.380850 -y 48.452350 -U 0.000000 -V 0.000000 -T 0.000000
n -t 3.000000 -s 9 -x 3.321939 -y 27.648600 -U 0.000000 -V 0.000000 -T 0.000000
n -t 3.000000 -s 5 -x 76.535932 -y 65.780801 -U 0.000000 -V 0.000000 -T 0.000000
n -t 3.000000 -s 0 -x 72.427454 -y 27.917539 -U 0.000000 -V 0.000000 -T 0.000000
n -t 3.000000 -s 2 -x 21.380850 -y 48.452350 -U 0.000000 -V 0.000000 -T 0.000000
n -t 3.000000 -s 6 -x 46.626025 -y 78.137214 -U 0.354845 -V -0.934925 -T 4.708642
n -t 3.000000 -s 1 -x 19.453690 -y 77.714682 -U 0.139074 -V -0.990282 -T 4.018749
n -t 3.000000 -s 5 -x 76.535932 -y 65.780801 -U -0.917851 -V -0.396926 -T 6.918530
n -t 3.000000 -s 4 -x 43.630041 -y 49.925379 -U 0.721811 -V -0.692090 -T 6.465435
n -t 3.000000 -s 0 -x 72.427454 -y 27.917539 -U -0.311729 -V 0.950171 -T 7.191174
n -t 3.000000 -s 9 -x 3.321939 -y 27.648600 -U 0.506845 -V 0.862037 -T 7.727757
n -t 3.000000 -s 6 -x 46.626025 -y 78.137214 -U -0.425864 -V -0.904787 -T 12.680653
n -t 3.000000 -s 4 -x 43.630041 -y 49.925379 -U -0.699973 -V 0.714169 -T 8.536674
n -t 3.000000 -s 2 -x 21.380850 -y 48.452350 -U 0.876423 -V 0.481542 -T 2.690692
n -t 3.000000 -s 9 -x 3.321939 -y 27.648600 -U 0.000000 -V 0.000000 -T 0.000000
n -t 3.000000 -s 5 -x 76.535932 -y 65.780801 -U 0.073234 -V -0.997315 -T 9.843646
n -t 3.000000 -s 5 -x 76.535932 -y 65.780801 -U 0.418941 -V -0.908013 -T 13.599158
n -t 4.000000 -s 6 -x 46.200162 -y 77.232427 -U 0.000000 -V 0.000000 -T 0.000000
n -t 4.000000 -s 1 -x 19.592764 -y 76.724400 -U 0.000000 -V 0.000000 -T 0.000000
n -t 4.000000 -s 4 -x 42.930068 -y 50.639548 -U 0.000000 -V 0.000000 -T 0.000000
n -t 4.000000 -s 2 -x 22.257273 -y 48.933892 -U 0.000000 -V 0.000000 -T 0.000000
n -t 4.000000 -s 9 -x 3.321939 -y 27.648600 -U 0.000000 -V 0.000000 -T 0.000000
n -t 4.000000 -s 5 -x 76.954873 -y 64.872788 -U 0.000000 -V 0.000000 -T 0.000000
n -t 4.000000 -s 0 -x 72.115725 -y 28.867710 -U 0.000000 -V 0.000000 -T 0.000000
n -t 4.000000 -s 4 -x 42.930068 -y 50.639548 -U 0.498083 -V 0.867130 -T 3.172136
n -t 4.000000 -s 1 -x 19.592764 -y 76.724400 -U 0.683616 -V -0.729842 -T 3.006835
n -t 4.000000 -s 2 -x 22.257273 -y 48.933892 -U -0.220937 -V -0.975288 -T 2.756393
n -t 4.000000 -s 6 -x 46.200162 -y 77.232427 -U 0.809965 -V -0.586478 -T 4.608090
n -t 4.000000 -s 5 -x 76.954873 -y 64.872788 -U 0.981196 -V -0.193012 -T 6.480454
n -t 4.000000 -s 0 -x 72.115725 -y 28.867710 -U -0.414208 -V 0.910182 -T 7.108473
n -t 4.000000 -s 9 -x 3.321939 -y 27.648600 -U 0.743695 -V 0.668519 -T 17.350988
n -t 4.000000 -s 8 -x 58.959120 -y 94.812840 -U -0.468051 -V -0.883702 -T 30.870720
n -t 4.000000 -s 6 -x 46.200162 -y 77.232427 -U -0.323260 -V -0.946310 -T 10.328126
n -t 4.000000 -s 2 -x 22.257273 -y 48.933892 -U 0.763310 -V 0.646032 -T 12.729550
n -t 4.000000 -s 4 -x 42.930068 -y 50.639548 -U -0.976856 -V 0.213896 -T 7.859770
n -t 4.000000 -s 5 -x 76.954873 -y 64.872788 -U 0.381793 -V -0.924248 -T 11.654559
n -t 5.000000 -s 10 -x 35.790420 -y 60.387750 -U 1.978662 -V -0.387956 -T 5.273891
n -t 5.000000 -s 1 -x 20.276380 -y 75.994558 -U 0.000000 -V 0.000000 -T 0.000000
n -t 5.000000 -s 2 -x 23.020583 -y 49.579924 -U 0.000000 -V 0.000000 -T 0.000000
n -t 5.000000 -s 6 -x 45.876901 -y 76.286117 -U 0.000000 -V 0.000000 -T 0.000000
n -t 5.000000 -s 4 -x 41.953211 -y 50.853444 -U 0.000000 -V 0.000000 -T 0.000000
n -t 5.000000 -s 9 -x 4.065634 -y 28.317119 -U 0.000000 -V 0.000000 -T 0.000000
n -t 5.000000 -s 8 -x 58.491069 -y 93.929138 -U 0.000000 -V 0.000000 -T 0.000000
n -t 5.000000 -s 5 -x 77.336667 -y 63.948540 -U 0.000000 -V 0.000000 -T 0.000000
n -t 5.000000 -s 0 -x 71.701517 -y 29.777892 -U 0.000000 -V 0.000000 -T 0.000000
n -t 5.000000 -s 1 -x 20.276380 -y 75.994558 -U 0.683616 -V -0.729842 -T 2.006835
n -t 5.000000 -s 2 -x 23.020583 -y 49.579924 -U -0.380595 -V -0.924742 -T 3.605665
n -t 5.000000 -s 6 -x 45.876901 -y 76.286117 -U 0.917656 -V -0.397375 -T 4.419579
n -t 5.000000 -s 5 -x 77.336667 -y 63.948540 -U 0.998622 -V 0.052478 -T 4.969232
n -t 5.000000 -s 4 -x 41.953211 -y 50.853444 -U 0.786561 -V 0.617513 -T 6.107107
n -t 5.000000 -s 0 -x 71.701517 -y 29.777892 -U -0.499529 -V 0.866297 -T 7.095891
n -t 5.000000 -s 9 -x 4.065634 -y 28.317119 -U 0.764041 -V 0.645167 -T 18.856203
n -t 5.000000 -s 8 -x 58.491069 -y 93.929138 -U -0.422644 -V -0.906296 -T 27.763932
n -t 5.000000 -s 2 -x 23.020583 -y 49.579924 -U 0.763310 -V 0.646032 -T 11.729550
n -t 5.000000 -s 4 -x 41.953211 -y 50.853444 -U -0.927246 -V 0.374454 -T 5.071254
n -t 5.000000 -s 5 -x 77.336667 -y 63.948540 -U 0.336623 -V -0.941640 -T 9.741691
n -t 6.000000 -s 1 -x 20.959996 -y 75.264716 -U 0.000000 -V 0.000000 -T 0.000000
n -t 6.000000 -s 2 -x 23.783894 -y 50.225956 -U 0.000000 -V 0.000000 -T 0.000000
n -t 6.000000 -s 6 -x 46.794557 -y 75.888742 -U 0.000000 -V 0.000000 -T 0.000000
n -t 6.000000 -s 4 -x 41.025966 -y 51.227898 -U 0.000000 -V 0.000000 -T 0.000000
n -t 6.000000 -s 9 -x 4.829675 -y 28.962286 -U 0.000000 -V 0.000000 -T 0.000000
n -t 6.000000 -s 8 -x 58.068426 -y 93.022842 -U 0.000000 -V 0.000000 -T 0.000000
n -t 6.000000 -s 5 -x 77.673289 -y 63.006901 -U 0.000000 -V 0.000000 -T 0.000000
n -t 6.000000 -s 0 -x 71.201988 -y 30.644189 -U 0.000000 -V 0.000000 -T 0.000000
n -t 6.000000 -s 1 -x 20.959996 -y 75.264716 -U 0.921653 -V -0.388016 -T 2.893662
n -t 6.000000 -s 5 -x 77.673289 -y 63.006901 -U 0.896002 -V 0.444049 -T 4.030506
n -t 6.000000 -s 2 -x 23.783894 -y 50.225956 -U -0.035905 -V -0.999355 -T 4.371116
n -t 6.000000 -s 6 -x 46.794557 -y 75.888742 -U 0.946369 -V -0.323088 -T 5.406623
n -t 6.000000 -s 4 -x 41.025966 -y 51.227898 -U -0.799511 -V 0.600651 -T 7.710350
n -t 6.000000 -s 0 -x 71.201988 -y 30.644189 -U -0.568916 -V 0.822395 -T 7.135479
n -t 6.000000 -s 8 -x 58.068426 -y 93.022842 -U -0.366375 -V -0.930467 -T 24.741957
n -t 6.000000 -s 9 -x 4.829675 -y 28.962286 -U 0.779839 -V 0.625981 -T 20.375554
n -t 6.000000 -s 2 -x 23.783894 -y 50.225956 -U 0.819667 -V 0.572841 -T 12.062046
n -t 6.000000 -s 4 -x 41.025966 -y 51.227898 -U -0.799511 -V 0.600651 -T 2.710350
n -t 6.000000 -s 8 -x 58.068426 -y 93.022842 -U 0.000000 -V 0.000000 -T 0.000000
n -t 6.000000 -s 9 -x 4.829675 -y 28.962286 -U 0.000000 -V 0.000000 -T 0.000000
n -t 6.000000 -s 5 -x 77.673289 -y 63.006901 -U 0.280613 -V -0.959821 -T 7.869474
n -t 7.000000 -s 1 -x 21.881648 -y 74.876700 -U 0.000000 -V 0.000000 -T 0.000000
n -t 7.000000 -s 2 -x 24.603560 -y 50.798797 -U 0.000000 -V 0.000000 -T 0.000000
n -t 7.000000 -s 6 -x 47.740926 -y 75.565654 -U 0.000000 -V 0.000000 -T 0.000000
n -t 7.000000 -s 4 -x 40.226454 -y 51.828549 -U 0.000000 -V 0.000000 -T 0.000000
n -t 7.000000 -s 8 -x 58.068426 -y 93.022842 -U 0.000000 -V 0.000000 -T 0.000000
n -t 7.000000 -s 9 -x 4.829675 -y 28.962286 -U 0.000000 -V 0.000000 -T 0.000000
n -t 7.000000 -s 5 -x 77.953902 -y 62.047080 -U 0.000000 -V 0.000000 -T 0.000000
n -t 7.000000 -s 0 -x 70.633071 -y 31.466584 -U 0.000000 -V 0.000000 -T 0.000000
n -t 7.000000 -s 5 -x 77.953902 -y 62.047080 -U 0.570233 -V 0.821483 -T 4.062039
n -t 7.000000 -s 1 -x 21.881648 -y 74.876700 -U 0.957433 -V -0.288654 -T 3.889525
n -t 7.000000 -s 6 -x 47.740926 -y 75.565654 -U 0.221292 -V -0.975208 -T 5.705854
n -t 7.000000 -s 4 -x 40.226454 -y 51.828549 -U -0.799511 -V 0.600651 -T 6.710350
n -t 7.000000 -s 2 -x 24.603560 -y 50.798797 -U 0.184795 -V -0.982777 -T 5.422486
n -t 7.000000 -s 0 -x 70.633071 -y 31.466584 -U -0.624568 -V 0.780970 -T 7.212975
n -t 7.000000 -s 8 -x 58.068426 -y 93.022842 -U -0.211929 -V -0.977285 -T 19.716734
n -t 7.000000 -s 9 -x 4.829675 -y 28.962286 -U 0.779839 -V 0.625981 -T 20.375554
n -t 7.000000 -s 2 -x 24.603560 -y 50.798797 -U 0.864302 -V 0.502974 -T 12.521872
n -t 7.000000 -s 6 -x 47.740926 -y 75.565654 -U -0.417674 -V -0.908597 -T 13.906561
n -t 7.000000 -s 4 -x 40.226454 -y 51.828549 -U -0.509586 -V 0.860420 -T 1.119153
n -t 7.000000 -s 6 -x 47.740926 -y 75.565654 -U 0.000000 -V 0.000000 -T 0.000000
n -t 7.000000 -s 9 -x 4.829675 -y 28.962286 -U 0.000000 -V 0.000000 -T 0.000000
n -t 7.000000 -s 5 -x 77.953902 -y 62.047080 -U 0.209607 -V -0.977786 -T 6.050725
n -t 8.000000 -s 1 -x 22.839082 -y 74.588046 -U 0.000000 -V 0.000000 -T 0.000000
n -t 8.000000 -s 2 -x 25.467862 -y 51.301770 -U 0.000000 -V 0.000000 -T 0.000000
n -t 8.000000 -s 8 -x 57.856497 -y 92.045557 -U 0.000000 -V 0.000000 -T 0.000000
n -t 8.000000 -s 6 -x 47.740926 -y 75.565654 -U 0.000000 -V 0.000000 -T 0.000000
n -t 8.000000 -s 4 -x 39.716868 -y 52.688969 -U 0.000000 -V 0.000000 -T 0.000000
n -t 8.000000 -s 9 -x 4.829675 -y 28.962286 -U 0.000000 -V 0.000000 -T 0.000000
n -t 8.000000 -s 5 -x 78.163509 -y 61.069294 -U 0.000000 -V 0.000000 -T 0.000000
n -t 8.000000 -s 0 -x 70.008503 -y 32.247555 -U 0.000000 -V 0.000000 -T 0.000000
n -t 8.000000 -s 4 -x 39.716868 -y 52.688969 -U -0.837328 -V 0.546701 -T 5.798704
n -t 8.000000 -s 5 -x 78.163509 -y 61.069294 -U 0.217490 -V 0.976063 -T 5.022230
n -t 8.000000 -s 6 -x 47.740926 -y 75.565654 -U 0.221292 -V -0.975208 -T 5.705854
n -t 8.000000 -s 1 -x 22.839082 -y 74.588046 -U -0.419513 -V -0.907749 -T 5.052919
n -t 8.000000 -s 2 -x 25.467862 -y 51.301770 -U 0.322121 -V -0.946698 -T 6.570229
n -t 8.000000 -s 0 -x 70.008503 -y 32.247555 -U -0.668913 -V 0.743341 -T 7.317612
n -t 8.000000 -s 8 -x 57.856497 -y 92.045557 -U -0.105827 -V -0.994385 -T 18.785026
n -t 8.000000 -s 9 -x 4.829675 -y 28.962286 -U 0.779839 -V 0.625981 -T 20.375554
n -t 8.000000 -s 2 -x 25.467862 -y 51.301770 -U 0.898962 -V 0.438027 -T 13.085909
n -t 8.000000 -s 6 -x 47.740926 -y 75.565654 -U -0.417674 -V -0.908597 -T 13.906561
n -t 8.000000 -s 4 -x 39.716868 -y 52.688969 -U -0.064042 -V 0.997947 -T 0.650683
n -t 8.000000 -s 6 -x 47.740926 -y 75.565654 -U 0.000000 -V 0.000000 -T 0.000000
n -t 8.000000 -s 1 -x 22.839082 -y 74.588046 -U 0.000000 -V 0.000000 -T 0.000000
n -t 8.000000 -s 9 -x 4.829675 -y 28.962286 -U 0.000000 -V 0.000000 -T 0.000000
n -t 8.000000 -s 5 -x 78.163509 -y 61.069294 -U 0.117394 -V -0.993085 -T 4.304461
n -t 8.000000 -s 0 -x 70.008503 -y 32.247555 -U 0.000000 -V 0.000000 -T 0.000000
n -t 9.000000 -s 2 -x 26.366824 -y 51.739797 -U 0.000000 -V 0.000000 -T 0.000000
n -t 9.000000 -s 8 -x 57.750670 -y 91.051173 -U 0.000000 -V 0.000000 -T 0.000000
n -t 9.000000 -s 4 -x 39.675197 -y 53.338316 -U 0.000000 -V 0.000000 -T 0.000000
n -t 9.000000 -s 6 -x 47.740926 -y 75.565654 -U 0.000000 -V 0.000000 -T 0.000000
n -t 9.000000 -s 1 -x 22.839082 -y 74.588046 -U 0.000000 -V 0.000000 -T 0.000000
n -t 9.000000 -s 9 -x 4.829675 -y 28.962286 -U 0.000000 -V 0.000000 -T 0.000000
n -t 9.000000 -s 5 -x 78.280903 -y 60.076209 -U 0.000000 -V 0.000000 -T 0.000000
n -t 9.000000 -s 0 -x 70.008503 -y 32.247555 -U 0.000000 -V 0.000000 -T 0.000000
n -t 9.000000 -s 4 -x 39.675197 -y 53.338316 -U -0.885883 -V 0.463910 -T 5.433841
n -t 9.000000 -s 6 -x 47.740926 -y 75.565654 -U -0.841831 -V -0.539741 -T 4.794141
n -t 9.000000 -s 1 -x 22.839082 -y 74.588046 -U -0.419513 -V -0.907749 -T 5.052919
n -t 9.000000 -s 5 -x 78.280903 -y 60.076209 -U 0.163157 -V 0.986600 -T 5.975163
n -t 9.000000 -s 0 -x 70.008503 -y 32.247555 -U -0.668913 -V 0.743341 -T 7.317612
n -t 9.000000 -s 2 -x 26.366824 -y 51.739797 -U -0.807915 -V 0.589299 -T 6.990223
n -t 9.000000 -s 8 -x 57.750670 -y 91.051173 -U 0.005341 -V -0.999986 -T 18.073371
n -t 9.000000 -s 9 -x 4.829675 -y 28.962286 -U 0.779839 -V 0.625981 -T 20.375554
n -t 9.000000 -s 6 -x 47.740926 -y 75.565654 -U -0.234511 -V -0.972113 -T 12.209649
n -t 9.000000 -s 4 -x 39.675197 -y 53.338316 -U 0.295686 -V 0.955285 -T 1.515541
n -t 9.000000 -s 1 -x 22.839082 -y 74.588046 -U 0.000000 -V 0.000000 -T 0.000000
n -t 9.000000 -s 2 -x 26.366824 -y 51.739797 -U 0.000000 -V 0.000000 -T 0.000000
n -t 9.000000 -s 9 -x 4.829675 -y 28.962286 -U 0.000000 -V 0.000000 -T 0.000000
n -t 9.000000 -s 5 -x 78.280903 -y 60.076209 -U -0.005161 -V -0.999987 -T 2.659812
n -t 9.000000 -s 0 -x 70.008503 -y 32.247555 -U 0.000000 -V 0.000000 -T 0.000000
n -t 10.000000 -s 6 -x 47.506415 -y 74.593541 -U 0.000000 -V 0.000000 -T 0.000000
n -t 10.000000 -s 8 -x 57.756011 -y 90.051187 -U 0.000000 -V 0.000000 -T 0.000000
n -t 10.000000 -s 4 -x 39.970883 -y 54.293601 -U 0.000000 -V 0.000000 -T 0.000000
n -t 10.000000 -s 1 -x 22.839082 -y 74.588046 -U 0.000000 -V 0.000000 -T 0.000000
n -t 10.000000 -s 2 -x 26.366824 -y 51.739797 -U 0.000000 -V 0.000000 -T 0.000000
n -t 10.000000 -s 9 -x 4.829675 -y 28.962286 -U 0.000000 -V 0.000000 -T 0.000000
n -t 10.000000 -s 5 -x 78.275742 -y 59.076222 -U 0.000000 -V 0.000000 -T 0.000000
n -t 10.000000 -s 0 -x 70.008503 -y 32.247555 -U 0.000000 -V 0.000000 -T 0.000000
n -t 10.000000 -s 6 -x 47.506415 -y 74.593541 -U -0.672951 -V -0.739687 -T 2.708493
n -t 10.000000 -s 4 -x 39.970883 -y 54.293601 -U 0.808765 -V 0.588132 -T 7.063668
n -t 10.000000 -s 5 -x 78.275742 -y 59.076222 -U 0.134014 -V -0.990979 -T 7.313021
n -t 10.000000 -s 1 -x 22.839082 -y 74.588046 -U 0.998696 -V 0.051055 -T 6.876271
n -t 10.000000 -s 2 -x 26.366824 -y 51.739797 -U 0.548950 -V -0.835855 -T 6.083538
n -t 10.000000 -s 0 -x 70.008503 -y 32.247555 -U -0.668913 -V 0.743341 -T 7.317612
n -t 10.000000 -s 8 -x 57.756011 -y 90.051187 -U 0.015525 -V -0.999879 -T 15.113896
n -t 10.000000 -s 4 -x 39.970883 -y 54.293601 -U 0.808765 -V 0.588132 -T 2.063668
n -t 10.000000 -s 6 -x 47.506415 -y 74.593541 -U 0.000000 -V 0.000000 -T 0.000000
n -t 10.000000 -s 2 -x 26.366824 -y 51.739797 -U 0.887908 -V 0.460021 -T 14.688632
n -t 10.000000 -s 5 -x 78.275742 -y 59.076222 -U -0.170194 -V -0.985411 -T 1.162298
n -t 10.000000 -s 0 -x 70.008503 -y 32.247555 -U 0.000000 -V 0.000000 -T 0.000000
n -t 11.000000 -s 6 -x 47.506415 -y 74.593541 -U 0.000000 -V 0.000000 -T 0.000000
n -t 11.000000 -s 4 -x 40.779649 -y 54.881733 -U 0.000000 -V 0.000000 -T 0.000000
n -t 11.000000 -s 1 -x 23.837778 -y 74.639101 -U 0.000000 -V 0.000000 -T 0.000000
n -t 11.000000 -s 2 -x 27.254732 -y 52.199818 -U 0.000000 -V 0.000000 -T 0.000000
n -t 11.000000 -s 8 -x 57.771537 -y 89.051308 -U 0.000000 -V 0.000000 -T 0.000000
n -t 11.000000 -s 5 -x 78.105548 -y 58.090811 -U 0.000000 -V 0.000000 -T 0.000000
n -t 11.000000 -s 0 -x 70.008503 -y 32.247555 -U 0.000000 -V 0.000000 -T 0.000000
n -t 11.000000 -s 6 -x 47.506415 -y 74.593541 -U -0.666116 -V 0.745848 -T 2.118441
n -t 11.000000 -s 4 -x 40.779649 -y 54.881733 -U 0.808765 -V 0.588132 -T 6.063668
n -t 11.000000 -s 5 -x 78.105548 -y 58.090811 -U 0.180674 -V -0.983543 -T 6.366414
n -t 11.000000 -s 0 -x 70.008503 -y 32.247555 -U -0.668913 -V 0.743341 -T 7.317612
n -t 11.000000 -s 2 -x 27.254732 -y 52.199818 -U 0.736871 -V -0.676034 -T 6.376180
n -t 11.000000 -s 1 -x 23.837778 -y 74.639101 -U 0.982589 -V 0.185790 -T 8.259171
n -t 11.000000 -s 8 -x 57.771537 -y 89.051308 -U 0.188068 -V -0.982156 -T 13.111696
n -t 11.000000 -s 4 -x 40.779649 -y 54.881733 -U 0.844059 -V 0.536250 -T 1.452177
n -t 11.000000 -s 6 -x 47.506415 -y 74.593541 -U -0.111630 -V -0.993750 -T 7.641110
n -t 11.000000 -s 0 -x 70.008503 -y 32.247555 -U 0.000000 -V 0.000000 -T 0.000000
n -t 12.000000 -s 4 -x 41.623708 -y 55.417982 -U 0.000000 -V 0.000000 -T 0.000000
n -t 12.000000 -s 6 -x 47.394785 -y 73.599791 -U 0.000000 -V 0.000000 -T 0.000000
n -t 12.000000 -s 2 -x 27.991603 -y 51.523784 -U 0.000000 -V 0.000000 -T 0.000000
n -t 12.000000 -s 1 -x 24.820367 -y 74.824891 -U 0.000000 -V 0.000000 -T 0.000000
n -t 12.000000 -s 8 -x 57.959604 -y 88.069152 -U 0.000000 -V 0.000000 -T 0.000000
n -t 12.000000 -s 5 -x 78.286222 -y 57.107268 -U 0.000000 -V 0.000000 -T 0.000000
n -t 12.000000 -s 0 -x 70.008503 -y 32.247555 -U 0.000000 -V 0.000000 -T 0.000000
n -t 12.000000 -s 6 -x 47.394785 -y 73.599791 -U -0.861233 -V -0.508211 -T 1.986749
n -t 12.000000 -s 4 -x 41.623708 -y 55.417982 -U 0.801422 -V 0.598099 -T 5.066025
n -t 12.000000 -s 5 -x 78.286222 -y 57.107268 -U 0.180674 -V -0.983543 -T 5.366414
n -t 12.000000 -s 0 -x 70.008503 -y 32.247555 -U -0.668913 -V 0.743341 -T 7.317612
n -t 12.000000 -s 1 -x 24.820367 -y 74.824891 -U 0.948921 -V -0.315513 -T 7.083022
n -t 12.000000 -s 2 -x 27.991603 -y 51.523784 -U 0.932730 -V -0.360576 -T 6.656070
n -t 12.000000 -s 8 -x 57.959604 -y 88.069152 -U 0.390673 -V -0.920529 -T 11.581503
n -t 12.000000 -s 4 -x 41.623708 -y 55.417982 -U 0.844059 -V 0.536250 -T 0.452177
n -t 12.000000 -s 6 -x 47.394785 -y 73.599791 -U 0.000000 -V 0.000000 -T 0.000000
n -t 12.000000 -s 1 -x 24.820367 -y 74.824891 -U 0.000000 -V 0.000000 -T 0.000000
n -t 12.000000 -s 2 -x 27.991603 -y 51.523784 -U 0.866158 -V 0.499770 -T 18.495068
n -t 12.000000 -s 0 -x 70.008503 -y 32.247555 -U 0.000000 -V 0.000000 -T 0.000000
n -t 13.000000 -s 10 -x 46.225670 -y 58.341710 -U 0.583589 -V -1.667652 -T 31.870246
n -t 13.000000 -s 6 -x 47.394785 -y 73.599791 -U 0.000000 -V 0.000000 -T 0.000000
n -t 13.000000 -s 4 -x 42.005373 -y 55.660462 -U 0.000000 -V 0.000000 -T 0.000000
n -t 13.000000 -s 1 -x 24.820367 -y 74.824891 -U 0.000000 -V 0.000000 -T 0.000000
n -t 13.000000 -s 2 -x 28.857761 -y 52.023554 -U 0.000000 -V 0.000000 -T 0.000000
n -t 13.000000 -s 8 -x 58.350278 -y 87.148622 -U 0.000000 -V 0.000000 -T 0.000000
n -t 13.000000 -s 5 -x 78.466896 -y 56.123725 -U 0.000000 -V 0.000000 -T 0.000000
n -t 13.000000 -s 0 -x 70.008503 -y 32.247555 -U 0.000000 -V 0.000000 -T 0.000000
n -t 13.000000 -s 6 -x 47.394785 -y 73.599791 -U -0.861233 -V -0.508211 -T 1.986749
n -t 13.000000 -s 5 -x 78.466896 -y 56.123725 -U 0.180674 -V -0.983543 -T 4.366414
n -t 13.000000 -s 4 -x 42.005373 -y 55.660462 -U 0.797001 -V 0.603977 -T 4.615248
n -t 13.000000 -s 0 -x 70.008503 -y 32.247555 -U -0.668913 -V 0.743341 -T 7.317612
n -t 13.000000 -s 1 -x 24.820367 -y 74.824891 -U 0.948921 -V -0.315513 -T 7.083022
n -t 13.000000 -s 2 -x 28.857761 -y 52.023554 -U 0.385471 -V 0.922720 -T 6.962476
n -t 13.000000 -s 8 -x 58.350278 -y 87.148622 -U 0.600066 -V -0.799951 -T 10.633305
n -t 13.000000 -s 4 -x 42.005373 -y 55.660462 -U 0.000000 -V 0.000000 -T 0.000000
n -t 13.000000 -s 6 -x 47.394785 -y 73.599791 -U 0.000000 -V 0.000000 -T 0.000000
n -t 13.000000 -s 1 -x 24.820367 -y 74.824891 -U 0.000000 -V 0.000000 -T 0.000000
n -t 13.000000 -s 2 -x 28.857761 -y 52.023554 -U 0.000000 -V 0.000000 -T 0.000000
n -t 13.000000 -s 8 -x 58.350278 -y 87.148622 -U -0.324188 -V -0.945993 -T 18.941256
n -t 13.000000 -s 0 -x 70.008503 -y 32.247555 -U 0.000000 -V 0.000000 -T 0.000000
n -t 14.000000 -s 6 -x 47.394785 -y 73.599791 -U 0.000000 -V 0.000000 -T 0.000000
n -t 14.000000 -s 4 -x 42.005373 -y 55.660462 -U 0.000000 -V 0.000000 -T 0.000000
n -t 14.000000 -s 1 -x 24.820367 -y 74.824891 -U 0.000000 -V 0.000000 -T 0.000000
n -t 14.000000 -s 2 -x 28.857761 -y 52.023554 -U 0.000000 -V 0.000000 -T 0.000000
n -t 14.000000 -s 8 -x 58.026090 -y 86.202629 -U 0.000000 -V 0.000000 -T 0.000000
n -t 14.000000 -s 5 -x 78.647570 -y 55.140182 -U 0.000000 -V 0.000000 -T 0.000000
n -t 14.000000 -s 0 -x 70.008503 -y 32.247555 -U 0.000000 -V 0.000000 -T 0.000000
n -t 14.000000 -s 6 -x 47.394785 -y 73.599791 -U -0.861233 -V -0.508211 -T 1.986749
n -t 14.000000 -s 5 -x 78.647570 -y 55.140182 -U 0.180674 -V -0.983543 -T 3.366414
n -t 14.000000 -s 4 -x 42.005373 -y 55.660462 -U 0.797001 -V 0.603977 -T 4.615248
n -t 14.000000 -s 0 -x 70.008503 -y 32.247555 -U -0.668913 -V 0.743341 -T 7.317612
n -t 14.000000 -s 8 -x 58.026090 -y 86.202629 -U -0.634332 -V -0.773061 -T 8.182625
n -t 14.000000 -s 1 -x 24.820367 -y 74.824891 -U 0.948921 -V -0.315513 -T 7.083022
n -t 14.000000 -s 2 -x 28.857761 -y 52.023554 -U 0.385471 -V 0.922720 -T 6.962476
n -t 14.000000 -s 6 -x 47.394785 -y 73.599791 -U 0.000000 -V 0.000000 -T 0.000000
n -t 14.000000 -s 1 -x 24.820367 -y 74.824891 -U 0.000000 -V 0.000000 -T 0.000000
n -t 14.000000 -s 2 -x 28.857761 -y 52.023554 -U 0.000000 -V 0.000000 -T 0.000000
n -t 14.000000 -s 8 -x 58.026090 -y 86.202629 -U -0.245813 -V -0.969317 -T 16.115686
n -t 14.000000 -s 5 -x 78.647570 -y 55.140182 -U -0.999245 -V 0.038845 -T 0.482432
n -t 14.000000 -s 0 -x 70.008503 -y 32.247555 -U 0.000000 -V 0.000000 -T 0.000000
n -t 15.000000 -s 6 -x 47.394785 -y 73.599791 -U 0.000000 -V 0.000000 -T 0.000000
n -t 15.000000 -s 4 -x 42.802374 -y 56.264440 -U 0.000000 -V 0.000000 -T 0.000000
n -t 15.000000 -s 1 -x 24.820367 -y 74.824891 -U 0.000000 -V 0.000000 -T 0.000000
n -t 15.000000 -s 2 -x 28.857761 -y 52.023554 -U 0.000000 -V 0.000000 -T 0.000000
n -t 15.000000 -s 8 -x 57.780278 -y 85.233312 -U 0.000000 -V 0.000000 -T 0.000000
n -t 15.000000 -s 5 -x 78.165501 -y 55.158922 -U 0.000000 -V 0.000000 -T 0.000000
n -t 15.000000 -s 0 -x 70.008503 -y 32.247555 -U 0.000000 -V 0.000000 -T 0.000000
n -t 15.000000 -s 6 -x 47.394785 -y 73.599791 -U -0.861233 -V -0.508211 -T 1.986749
n -t 15.000000 -s 4 -x 42.802374 -y 56.264440 -U 0.797001 -V 0.603977 -T 3.615248
n -t 15.000000 -s 8 -x 57.780278 -y 85.233312 -U -0.547654 -V -0.836705 -T 4.926330
n -t 15.000000 -s 5 -x 78.165501 -y 55.158922 -U -0.991652 -V 0.128943 -T 6.061245
n -t 15.000000 -s 1 -x 24.820367 -y 74.824891 -U 0.948921 -V -0.315513 -T 7.083022
n -t 15.000000 -s 2 -x 28.857761 -y 52.023554 -U 0.385471 -V 0.922720 -T 6.962476
n -t 15.000000 -s 0 -x 70.008503 -y 32.247555 -U 0.219262 -V 0.975666 -T 9.788993
n -t 15.000000 -s 6 -x 47.394785 -y 73.599791 -U 0.000000 -V 0.000000 -T 0.000000
n -t 15.000000 -s 1 -x 24.820367 -y 74.824891 -U 0.000000 -V 0.000000 -T 0.000000
n -t 15.000000 -s 2 -x 28.857761 -y 52.023554 -U 0.000000 -V 0.000000 -T 0.000000
n -t 15.000000 -s 8 -x 57.780278 -y 85.233312 -U -0.146132 -V -0.989265 -T 13.462211
n -t 15.000000 -s 5 -x 78.165501 -y 55.158922 -U -0.991652 -V 0.128943 -T 1.061245
n -t 15.000000 -s 0 -x 70.008503 -y 32.247555 -U 0.000000 -V 0.000000 -T 0.000000
n -t 16.000000 -s 6 -x 47.394785 -y 73.599791 -U 0.000000 -V 0.000000 -T 0.000000
n -t 16.000000 -s 4 -x 43.599375 -y 56.868417 -U 0.000000 -V 0.000000 -T 0.000000
n -t 16.000000 -s 1 -x 24.820367 -y 74.824891 -U 0.000000 -V 0.000000 -T 0.000000
n -t 16.000000 -s 2 -x 28.857761 -y 52.023554 -U 0.000000 -V 0.000000 -T 0.000000
n -t 16.000000 -s 8 -x 57.634145 -y 84.244047 -U 0.000000 -V 0.000000 -T 0.000000
n -t 16.000000 -s 5 -x 77.173849 -y 55.287866 -U 0.000000 -V 0.000000 -T 0.000000
n -t 16.000000 -s 0 -x 70.008503 -y 32.247555 -U 0.000000 -V 0.000000 -T 0.000000
n -t 16.000000 -s 8 -x 57.634145 -y 84.244047 -U -0.158659 -V -0.987333 -T 1.922509
n -t 16.000000 -s 6 -x 47.394785 -y 73.599791 -U -0.861233 -V -0.508211 -T 1.986749
n -t 16.000000 -s 4 -x 43.599375 -y 56.868417 -U 0.797001 -V 0.603977 -T 2.615248
n -t 16.000000 -s 5 -x 77.173849 -y 55.287866 -U -0.991652 -V 0.128943 -T 5.061245
n -t 16.000000 -s 1 -x 24.820367 -y 74.824891 -U 0.948921 -V -0.315513 -T 7.083022
n -t 16.000000 -s 2 -x 28.857761 -y 52.023554 -U 0.385471 -V 0.922720 -T 6.962476
n -t 16.000000 -s 0 -x 70.008503 -y 32.247555 -U 0.219262 -V 0.975666 -T 9.788993
n -t 16.000000 -s 4 -x 43.599375 -y 56.868417 -U 0.778433 -V -0.627728 -T 0.622917
n -t 16.000000 -s 6 -x 47.394785 -y 73.599791 -U 0.000000 -V 0.000000 -T 0.000000
n -t 16.000000 -s 1 -x 24.820367 -y 74.824891 -U 0.000000 -V 0.000000 -T 0.000000
n -t 16.000000 -s 2 -x 28.857761 -y 52.023554 -U 0.000000 -V 0.000000 -T 0.000000
n -t 16.000000 -s 8 -x 57.634145 -y 84.244047 -U -0.019013 -V -0.999819 -T 11.043193
n -t 16.000000 -s 5 -x 77.173849 -y 55.287866 -U -0.979529 -V 0.201305 -T 1.159508
n -t 16.000000 -s 0 -x 70.008503 -y 32.247555 -U 0.000000 -V 0.000000 -T 0.000000
n -t 17.000000 -s 6 -x 47.394785 -y 73.599791 -U 0.000000 -V 0.000000 -T 0.000000
n -t 17.000000 -s 4 -x 44.084274 -y 56.477395 -U 0.000000 -V 0.000000 -T 0.000000
n -t 17.000000 -s 1 -x 24.820367 -y 74.824891 -U 0.000000 -V 0.000000 -T 0.000000
n -t 17.000000 -s 2 -x 28.857761 -y 52.023554 -U 0.000000 -V 0.000000 -T 0.000000
n -t 17.000000 -s 8 -x 57.615133 -y 83.244228 -U 0.000000 -V 0.000000 -T 0.000000
n -t 17.000000 -s 5 -x 76.194321 -y 55.489171 -U 0.000000 -V 0.000000 -T 0.000000
n -t 17.000000 -s 0 -x 70.008503 -y 32.247555 -U 0.000000 -V 0.000000 -T 0.000000
n -t 17.000000 -s 8 -x 57.615133 -y 83.244228 -U 0.985623 -V 0.168961 -T 1.989358
n -t 17.000000 -s 4 -x 44.084274 -y 56.477395 -U 0.630205 -V 0.776429 -T 2.537996
n -t 17.000000 -s 6 -x 47.394785 -y 73.599791 -U -0.861233 -V -0.508211 -T 1.986749
n -t 17.000000 -s 5 -x 76.194321 -y 55.489171 -U -0.996974 -V -0.077740 -T 2.483812
n -t 17.000000 -s 1 -x 24.820367 -y 74.824891 -U 0.948921 -V -0.315513 -T 7.083022