n -t * -s 0  -x 78.504450000000006 -y 49.19829 -Z 0 -z 1  -v circle -c black
n -t * -s 1  -x 58.445540000000001 -y 99.970569999999995 -Z 0 -z 1  -v circle -c black
n -t * -s 2  -x 39.97569 -y 51.648200000000003 -Z 0 -z 1  -v circle -c black
n -t * -s 3  -x 44.604570000000002 -y 40.041609999999999 -Z 0 -z 1  -v circle -c black
n -t * -s 4  -x 37.914070000000002 -y 57.297789999999999 -Z 0 -z 1  -v circle -c black
n -t * -s 5  -x 5.7369139999999996 -y 42.877220000000001 -Z 0 -z 1  -v circle -c black
n -t * -s 6  -x 82.012270000000001 -y 95.73227 -Z 0 -z 1  -v circle -c black
n -t * -s 7  -x 33.465240000000001 -y 37.695349999999998 -Z 0 -z 1  -v circle -c black
n -t * -s 8  -x 85.450829999999996 -y 75.725139999999996 -Z 0 -z 1  -v circle -c black
n -t * -s 9  -x 70.593459999999993 -y 1.3882019999999999 -Z 0 -z 1  -v circle -c black
n -t * -s 10  -x 93.381479999999996 -y 73.46611 -Z 0 -z 1  -v circle -c black
n -t * -s 11  -x 3.7112970000000001 -y 47.119280000000003 -Z 0 -z 1  -v circle -c black
n -t * -s 12  -x 79.812039999999996 -y 44.234740000000002 -Z 0 -z 1  -v circle -c black
n -t * -s 13  -x 3.5413450000000002 -y 19.4298 -Z 0 -z 1  -v circle -c black
n -t * -s 14  -x 31.658080000000002 -y 12.511799999999999 -Z 0 -z 1  -v circle -c black
n -t * -s 15  -x 55.479590000000002 -y 35.581910000000001 -Z 0 -z 1  -v circle -c black
n -t * -s 16  -x 46.750309999999999 -y 32.691090000000003 -Z 0 -z 1  -v circle -c black
n -t * -s 17  -x 15.762460000000001 -y 38.534799999999997 -Z 0 -z 1  -v circle -c black
n -t * -s 18  -x 44.231360000000002 -y 21.18882 -Z 0 -z 1  -v circle -c black
n -t * -s 19  -x 95.393109999999993 -y 52.216500000000003 -Z 0 -z 1  -v circle -c black
n -t * -s 20  -x 16.995550000000001 -y 57.885260000000002 -Z 0 -z 2  -v circle -c black
V -t * -v 1.0a5 -a 0
W -t * -x 100 -y 100
A -t * -n 1 -p 0 -o 0x7fffffff -c 30 -a 1
A -t * -h 1 -m 1073741823 -s 0
n -t 0 -s 20 -S COLOR -c red -o black -i red -I black
n -t 0.000000 -s 20 -x 16.995550 -y 57.885260 -U 1.727394 -V 0.598579 -T 36.920744
n -t 0.000000 -s 11 -x 3.711297 -y 47.119280 -U 0.776900 -V 0.629624 -T 17.099056
n -t 0.000000 -s 4 -x 37.914070 -y 57.297790 -U -0.996263 -V 0.086370 -T 6.801802
n -t 0.000000 -s 2 -x 39.975690 -y 51.648200 -U -0.397873 -V 0.917440 -T 22.213103
n -t 0.000000 -s 7 -x 33.465240 -y 37.695350 -U -0.359179 -V 0.933269 -T 6.480207
n -t 0.000000 -s 5 -x 5.736914 -y 42.877220 -U 0.360290 -V 0.932840 -T 31.248834
n -t 0.000000 -s 17 -x 15.762460 -y 38.534800 -U 0.230385 -V 0.973100 -T 5.352304
n -t 0.000000 -s 3 -x 44.604570 -y 40.041610 -U -0.793821 -V 0.608151 -T 52.595147
n -t 0.000000 -s 13 -x 3.541345 -y 19.429800 -U -0.028283 -V 0.999600 -T 24.323055
n -t 0.000000 -s 16 -x 46.750310 -y 32.691090 -U -0.867303 -V 0.497780 -T 50.613078
n -t 0.000000 -s 4 -x 37.914070 -y 57.297790 -U -0.999101 -V 0.042386 -T 13.859908
n -t 1.000000 -s 11 -x 4.488197 -y 47.748904 -U 0.000000 -V 0.000000 -T 0.000000
n -t 1.000000 -s 4 -x 36.914969 -y 57.340176 -U 0.000000 -V 0.000000 -T 0.000000
n -t 1.000000 -s 2 -x 39.577817 -y 52.565640 -U 0.000000 -V 0.000000 -T 0.000000
n -t 1.000000 -s 7 -x 33.106061 -y 38.628619 -U 0.000000 -V 0.000000 -T 0.000000
n -t 1.000000 -s 5 -x 6.097204 -y 43.810060 -U 0.000000 -V 0.000000 -T 0.000000
n -t 1.000000 -s 17 -x 15.992845 -y 39.507900 -U 0.000000 -V 0.000000 -T 0.000000
n -t 1.000000 -s 3 -x 43.810749 -y 40.649761 -U 0.000000 -V 0.000000 -T 0.000000
n -t 1.000000 -s 13 -x 3.513062 -y 20.429400 -U 0.000000 -V 0.000000 -T 0.000000
n -t 1.000000 -s 16 -x 45.883007 -y 33.188870 -U 0.000000 -V 0.000000 -T 0.000000
n -t 1.000000 -s 11 -x 4.488197 -y 47.748904 -U 0.798412 -V 0.602111 -T 17.828821
n -t 1.000000 -s 4 -x 36.914969 -y 57.340176 -U -0.962364 -V 0.271765 -T 4.208274
n -t 1.000000 -s 2 -x 39.577817 -y 52.565640 -U -0.317332 -V 0.948315 -T 21.153673
n -t 1.000000 -s 7 -x 33.106061 -y 38.628619 -U -0.042143 -V 0.999112 -T 5.718165
n -t 1.000000 -s 5 -x 6.097204 -y 43.810060 -U 0.401320 -V 0.915938 -T 31.460551
n -t 1.000000 -s 17 -x 15.992845 -y 39.507900 -U 0.491777 -V 0.870721 -T 5.551496
n -t 1.000000 -s 3 -x 43.810749 -y 40.649761 -U -0.775128 -V 0.631804 -T 50.610932
n -t 1.000000 -s 13 -x 3.513062 -y 20.429400 -U 0.044608 -V 0.999005 -T 23.936131
n -t 1.000000 -s 16 -x 45.883007 -y 33.188870 -U -0.852779 -V 0.522273 -T 48.432500
n -t 1.000000 -s 4 -x 36.914969 -y 57.340176 -U -0.994754 -V 0.102299 -T 11.179609
n -t 2.000000 -s 11 -x 5.286609 -y 48.351016 -U 0.000000 -V 0.000000 -T 0.000000
n -t 2.000000 -s 4 -x 35.920215 -y 57.442475 -U 0.000000 -V 0.000000 -T 0.000000
n -t 2.000000 -s 2 -x 39.260485 -y 53.513955 -U 0.000000 -V 0.000000 -T 0.000000
n -t 2.000000 -s 7 -x 33.063918 -y 39.627730 -U 0.000000 -V 0.000000 -T 0.000000
n -t 2.000000 -s 5 -x 6.498524 -y 44.725998 -U 0.000000 -V 0.000000 -T 0.000000
n -t 2.000000 -s 17 -x 16.484622 -y 40.378621 -U 0.000000 -V 0.000000 -T 0.000000
n -t 2.000000 -s 3 -x 43.035621 -y 41.281565 -U 0.000000 -V 0.000000 -T 0.000000
n -t 2.000000 -s 13 -x 3.557670 -y 21.428405 -U 0.000000 -V 0.000000 -T 0.000000
n -t 2.000000 -s 16 -x 45.030228 -y 33.711142 -U 0.000000 -V 0.000000 -T 0.000000
n -t 2.000000 -s 4 -x 35.920215 -y 57.442475 -U -0.994428 -V 0.105418 -T 15.556559
n -t 2.000000 -s 2 -x 39.260485 -y 53.513955 -U -0.642425 -V 0.766348 -T 7.266231
n -t 2.000000 -s 3 -x 43.035621 -y 41.281565 -U -0.255543 -V 0.966798 -T 33.039995
n -t 2.000000 -s 7 -x 33.063918 -y 39.627730 -U 0.276507 -V 0.961012 -T 5.528083
n -t 2.000000 -s 11 -x 5.286609 -y 48.351016 -U 0.520531 -V 0.853843 -T 29.131282
n -t 2.000000 -s 17 -x 16.484622 -y 40.378621 -U 0.656089 -V 0.754683 -T 6.044474
n -t 2.000000 -s 5 -x 6.498524 -y 44.725998 -U -0.006678 -V 0.999978 -T 28.499192
n -t 2.000000 -s 13 -x 3.557670 -y 21.428405 -U 0.116192 -V 0.993227 -T 23.672217
n -t 2.000000 -s 16 -x 45.030228 -y 33.711142 -U -0.836445 -V 0.548052 -T 46.293595
n -t 2.000000 -s 2 -x 39.260485 -y 53.513955 -U -0.903504 -V 0.428580 -T 12.992835
n -t 3.000000 -s 4 -x 34.925787 -y 57.547893 -U 0.000000 -V 0.000000 -T 0.000000
n -t 3.000000 -s 2 -x 38.356981 -y 53.942534 -U 0.000000 -V 0.000000 -T 0.000000
n -t 3.000000 -s 3 -x 42.780078 -y 42.248363 -U 0.000000 -V 0.000000 -T 0.000000
n -t 3.000000 -s 7 -x 33.340425 -y 40.588742 -U 0.000000 -V 0.000000 -T 0.000000
n -t 3.000000 -s 11 -x 5.807140 -y 49.204858 -U 0.000000 -V 0.000000 -T 0.000000
n -t 3.000000 -s 17 -x 17.140712 -y 41.133304 -U 0.000000 -V 0.000000 -T 0.000000
n -t 3.000000 -s 5 -x 6.491845 -y 45.725976 -U 0.000000 -V 0.000000 -T 0.000000
n -t 3.000000 -s 13 -x 3.673862 -y 22.421631 -U 0.000000 -V 0.000000 -T 0.000000
n -t 3.000000 -s 16 -x 44.193783 -y 34.259194 -U 0.000000 -V 0.000000 -T 0.000000
n -t 3.000000 -s 4 -x 34.925787 -y 57.547893 -U -0.986288 -V 0.165033 -T 12.925287
n -t 3.000000 -s 2 -x 38.356981 -y 53.942534 -U -0.334539 -V 0.942382 -T 6.089318
n -t 3.000000 -s 3 -x 42.780078 -y 42.248363 -U -0.200448 -V 0.979704 -T 32.228877
n -t 3.000000 -s 7 -x 33.340425 -y 40.588742 -U 0.515688 -V 0.856777 -T 5.777610
n -t 3.000000 -s 11 -x 5.807140 -y 49.204858 -U 0.553726 -V 0.832699 -T 29.564434
n -t 3.000000 -s 17 -x 17.140712 -y 41.133304 -U 0.752712 -V 0.658349 -T 6.691825
n -t 3.000000 -s 5 -x 6.491845 -y 45.725976 -U 0.054861 -V 0.998494 -T 28.139535
n -t 3.000000 -s 13 -x 3.673862 -y 22.421631 -U 0.185408 -V 0.982662 -T 23.525117
n -t 3.000000 -s 16 -x 44.193783 -y 34.259194 -U -0.818050 -V 0.575148 -T 44.200482
n -t 3.000000 -s 2 -x 38.356981 -y 53.942534 -U -0.846079 -V 0.533058 -T 10.765172
n -t 4.000000 -s 4 -x 33.939499 -y 57.712927 -U 0.000000 -V 0.000000 -T 0.000000
n -t 4.000000 -s 2 -x 37.510902 -y 54.475593 -U 0.000000 -V 0.000000 -T 0.000000
n -t 4.000000 -s 3 -x 42.579630 -y 43.228067 -U 0.000000 -V 0.000000 -T 0.000000
n -t 4.000000 -s 7 -x 33.856113 -y 41.445519 -U 0.000000 -V 0.000000 -T 0.000000
n -t 4.000000 -s 11 -x 6.360866 -y 50.037558 -U 0.000000 -V 0.000000 -T 0.000000
n -t 4.000000 -s 17 -x 17.893424 -y 41.791653 -U 0.000000 -V 0.000000 -T 0.000000
n -t 4.000000 -s 5 -x 6.546706 -y 46.724470 -U 0.000000 -V 0.000000 -T 0.000000
n -t 4.000000 -s 13 -x 3.859270 -y 23.404293 -U 0.000000 -V 0.000000 -T 0.000000
n -t 4.000000 -s 16 -x 43.375734 -y 34.834342 -U 0.000000 -V 0.000000 -T 0.000000
n -t 4.000000 -s 4 -x 33.939499 -y 57.712927 -U -0.968809 -V 0.247808 -T 10.357429
n -t 4.000000 -s 2 -x 37.510902 -y 54.475593 -U 0.092020 -V 0.995757 -T 5.828716
n -t 4.000000 -s 3 -x 42.579630 -y 43.228067 -U -0.143788 -V 0.989609 -T 31.521198
n -t 4.000000 -s 7 -x 33.856113 -y 41.445519 -U 0.666187 -V 0.745785 -T 6.291254
n -t 4.000000 -s 11 -x 6.360866 -y 50.037558 -U 0.584034 -V 0.811729 -T 30.039776
n -t 4.000000 -s 17 -x 17.893424 -y 41.791653 -U 0.810423 -V 0.585845 -T 7.417981
n -t 4.000000 -s 5 -x 6.546706 -y 46.724470 -U 0.115348 -V 0.993325 -T 27.883360
n -t 4.000000 -s 13 -x 3.859270 -y 23.404293 -U 0.251359 -V 0.967894 -T 23.487230
n -t 4.000000 -s 16 -x 43.375734 -y 34.834342 -U -0.797309 -V 0.603572 -T 42.157758
n -t 4.000000 -s 2 -x 37.510902 -y 54.475593 -U -0.747673 -V 0.664067 -T 8.740061
n -t 5.000000 -s 4 -x 32.970690 -y 57.960735 -U 0.000000 -V 0.000000 -T 0.000000
n -t 5.000000 -s 2 -x 36.763229 -y 55.139660 -U 0.000000 -V 0.000000 -T 0.000000
n -t 5.000000 -s 3 -x 42.435842 -y 44.217676 -U 0.000000 -V 0.000000 -T 0.000000
n -t 5.000000 -s 7 -x 34.522299 -y 42.191304 -U 0.000000 -V 0.000000 -T 0.000000
n -t 5.000000 -s 11 -x 6.944900 -y 50.849286 -U 0.000000 -V 0.000000 -T 0.000000
n -t 5.000000 -s 17 -x 18.703847 -y 42.377498 -U 0.000000 -V 0.000000 -T 0.000000
n -t 5.000000 -s 5 -x 6.662054 -y 47.717795 -U 0.000000 -V 0.000000 -T 0.000000
n -t 5.000000 -s 13 -x 4.110629 -y 24.372187 -U 0.000000 -V 0.000000 -T 0.000000
n -t 5.000000 -s 16 -x 42.578425 -y 35.437914 -U 0.000000 -V 0.000000 -T 0.000000
n -t 5.000000 -s 4 -x 32.970690 -y 57.960735 -U -0.929254 -V 0.369442 -T 7.896841
n -t 5.000000 -s 2 -x 36.763229 -y 55.139660 -U 0.464678 -V 0.885479 -T 6.480667
n -t 5.000000 -s 3 -x 42.435842 -y 44.217676 -U -0.086074 -V 0.996289 -T 30.917360
n -t 5.000000 -s 7 -x 34.522299 -y 42.191304 -U 0.756211 -V 0.654328 -T 6.945625
n -t 5.000000 -s 11 -x 6.944900 -y 50.849286 -U 0.611653 -V 0.791126 -T 30.552654
n -t 5.000000 -s 17 -x 18.703847 -y 42.377498 -U 0.846452 -V 0.532466 -T 8.185550
n -t 5.000000 -s 5 -x 6.662054 -y 47.717795 -U 0.174144 -V 0.984720 -T 27.726146
n -t 5.000000 -s 13 -x 4.110629 -y 24.372187 -U 0.313366 -V 0.949633 -T 23.549987
n -t 5.000000 -s 16 -x 42.578425 -y 35.437914 -U -0.773901 -V 0.633306 -T 40.170540
n -t 5.000000 -s 2 -x 36.763229 -y 55.139660 -U -0.577531 -V 0.816368 -T 7.029299
n -t 6.000000 -s 2 -x 36.185697 -y 55.956028 -U -0.533483 -V 0.845811 -T 6.527122
n -t 7.000000 -s 2 -x 35.652214 -y 56.801839 -U -0.488034 -V 0.872825 -T 6.041851
n -t 8.000000 -s 2 -x 35.164181 -y 57.674664 -U -0.441602 -V 0.897211 -T 5.571969
n -t 9.000000 -s 2 -x 34.722579 -y 58.571875 -U -0.394654 -V 0.918830 -T 5.115855
n -t 10.000000 -s 4 -x 28.324420 -y 59.807943 -U 0.000000 -V 0.000000 -T 0.000000
n -t 10.000000 -s 2 -x 34.327925 -y 59.490705 -U 0.000000 -V 0.000000 -T 0.000000
n -t 10.000000 -s 3 -x 42.005471 -y 49.199120 -U 0.000000 -V 0.000000 -T 0.000000
n -t 10.000000 -s 7 -x 38.303353 -y 45.462945 -U 0.000000 -V 0.000000 -T 0.000000
n -t 10.000000 -s 11 -x 10.003164 -y 54.804918 -U 0.000000 -V 0.000000 -T 0.000000
n -t 10.000000 -s 17 -x 22.936105 -y 45.039826 -U 0.000000 -V 0.000000 -T 0.000000
n -t 10.000000 -s 5 -x 7.532772 -y 52.641397 -U 0.000000 -V 0.000000 -T 0.000000
n -t 10.000000 -s 13 -x 5.677457 -y 29.120350 -U 0.000000 -V 0.000000 -T 0.000000
n -t 10.000000 -s 16 -x 38.708918 -y 38.604444 -U 0.000000 -V 0.000000 -T 0.000000
n -t 10.000000 -s 2 -x 34.327925 -y 59.490705 -U -0.013339 -V 0.999911 -T 4.380740
n -t 10.000000 -s 3 -x 42.005471 -y 49.199120 -U 0.400147 -V 0.916451 -T 16.009513
n -t 10.000000 -s 4 -x 28.324420 -y 59.807943 -U 0.740965 -V 0.671544 -T 27.109534
n -t 10.000000 -s 7 -x 38.303353 -y 45.462945 -U 0.921314 -V 0.388820 -T 10.971586
n -t 10.000000 -s 11 -x 10.003164 -y 54.804918 -U 0.722686 -V 0.691176 -T 33.577946
n -t 10.000000 -s 16 -x 38.708918 -y 38.604444 -U -0.370645 -V 0.928775 -T 11.977583
n -t 10.000000 -s 5 -x 7.532772 -y 52.641397 -U 0.444633 -V 0.895713 -T 28.325808
n -t 10.000000 -s 17 -x 22.936105 -y 45.039826 -U -0.513863 -V 0.857872 -T 5.465956
n -t 10.000000 -s 15 -x 55.479590 -y 35.581910 -U -0.780790 -V 0.624794 -T 45.277548
n -t 15.000000 -s 2 -x 34.269490 -y 63.871055 -U 0.000000 -V 0.000000 -T 0.000000
n -t 15.000000 -s 3 -x 44.006205 -y 53.781375 -U 0.000000 -V 0.000000 -T 0.000000
n -t 15.000000 -s 4 -x 32.029243 -y 63.165664 -U 0.000000 -V 0.000000 -T 0.000000
n -t 15.000000 -s 7 -x 42.909921 -y 47.407046 -U 0.000000 -V 0.000000 -T 0.000000
n -t 15.000000 -s 11 -x 13.616596 -y 58.260798 -U 0.000000 -V 0.000000 -T 0.000000
n -t 15.000000 -s 16 -x 36.855694 -y 43.248317 -U 0.000000 -V 0.000000 -T 0.000000
n -t 15.000000 -s 5 -x 9.755935 -y 57.119962 -U 0.000000 -V 0.000000 -T 0.000000
n -t 15.000000 -s 17 -x 20.366792 -y 49.329188 -U 0.000000 -V 0.000000 -T 0.000000
n -t 15.000000 -s 15 -x 51.575642 -y 38.705881 -U 0.000000 -V 0.000000 -T 0.000000
n -t 15.000000 -s 2 -x 34.269490 -y 63.871055 -U 0.944879 -V 0.327421 -T 9.140825
n -t 15.000000 -s 3 -x 44.006205 -y 53.781375 -U 0.706018 -V 0.708194 -T 18.473164
n -t 15.000000 -s 1 -x 58.445540 -y 99.970570 -U -0.073462 -V -0.997298 -T 19.015863
n -t 15.000000 -s 15 -x 51.575642 -y 38.705881 -U 0.363734 -V 0.931503 -T 15.046584
n -t 15.000000 -s 4 -x 32.029243 -y 63.165664 -U 0.520569 -V 0.853819 -T 20.894845
n -t 15.000000 -s 7 -x 42.909921 -y 47.407046 -U -0.000651 -V 1.000000 -T 5.314772
n -t 15.000000 -s 11 -x 13.616596 -y 58.260798 -U 0.554300 -V 0.832317 -T 27.327676
n -t 15.000000 -s 17 -x 20.366792 -y 49.329188 -U 0.927191 -V 0.374588 -T 9.056957
n -t 15.000000 -s 5 -x 9.755935 -y 57.119962 -U 0.889892 -V 0.456172 -T 21.360341
n -t 18.000000 -s 2 -x 37.104125 -y 64.853318 -U 0.000000 -V 0.000000 -T 0.000000
n -t 18.000000 -s 3 -x 46.124259 -y 55.905956 -U 0.000000 -V 0.000000 -T 0.000000
n -t 18.000000 -s 1 -x 58.225154 -y 96.978676 -U 0.000000 -V 0.000000 -T 0.000000
n -t 18.000000 -s 15 -x 52.666844 -y 41.500389 -U 0.000000 -V 0.000000 -T 0.000000
n -t 18.000000 -s 4 -x 33.590951 -y 65.727122 -U 0.000000 -V 0.000000 -T 0.000000
n -t 18.000000 -s 7 -x 42.907967 -y 50.407045 -U 0.000000 -V 0.000000 -T 0.000000
n -t 18.000000 -s 11 -x 15.279496 -y 60.757749 -U 0.000000 -V 0.000000 -T 0.000000
n -t 18.000000 -s 17 -x 23.148366 -y 50.452952 -U 0.000000 -V 0.000000 -T 0.000000
n -t 18.000000 -s 5 -x 12.425610 -y 58.488478 -U 0.000000 -V 0.000000 -T 0.000000
n -t 18.000000 -s 2 -x 37.104125 -y 64.853318 -U 0.944879 -V 0.327421 -T 11.625320
n -t 18.000000 -s 3 -x 46.124259 -y 55.905956 -U 0.783981 -V 0.620785 -T 20.544529
n -t 18.000000 -s 1 -x 58.225154 -y 96.978676 -U 0.271902 -V -0.962325 -T 14.731873
n -t 18.000000 -s 15 -x 52.666844 -y 41.500389 -U 0.592089 -V 0.805873 -T 16.152876
n -t 18.000000 -s 4 -x 33.590951 -y 65.727122 -U 0.647239 -V 0.762287 -T 22.399298
n -t 18.000000 -s 7 -x 42.907967 -y 50.407045 -U 0.783373 -V 0.621552 -T 6.613295
n -t 18.000000 -s 11 -x 15.279496 -y 60.757749 -U 0.646231 -V 0.763142 -T 28.885958
n -t 18.000000 -s 17 -x 23.148366 -y 50.452952 -U 0.935892 -V 0.352286 -T 11.537800
n -t 18.000000 -s 5 -x 12.425610 -y 58.488478 -U 0.904110 -V 0.427301 -T 23.803414
n -t 19.000000 -s 2 -x 38.049004 -y 65.180739 -U 0.000000 -V 0.000000 -T 0.000000
n -t 19.000000 -s 3 -x 46.908240 -y 56.526741 -U 0.000000 -V 0.000000 -T 0.000000
n -t 19.000000 -s 1 -x 58.497056 -y 96.016351 -U 0.000000 -V 0.000000 -T 0.000000
n -t 19.000000 -s 15 -x 53.258932 -y 42.306262 -U 0.000000 -V 0.000000 -T 0.000000
n -t 19.000000 -s 4 -x 34.238190 -y 66.489410 -U 0.000000 -V 0.000000 -T 0.000000
n -t 19.000000 -s 7 -x 43.691340 -y 51.028598 -U 0.000000 -V 0.000000 -T 0.000000
n -t 19.000000 -s 11 -x 15.925727 -y 61.520891 -U 0.000000 -V 0.000000 -T 0.000000
n -t 19.000000 -s 17 -x 24.084258 -y 50.805238 -U 0.000000 -V 0.000000 -T 0.000000
n -t 19.000000 -s 5 -x 13.329720 -y 58.915778 -U 0.000000 -V 0.000000 -T 0.000000
n -t 19.000000 -s 2 -x 38.049004 -y 65.180739 -U 0.944879 -V 0.327421 -T 12.453485
n -t 19.000000 -s 3 -x 46.908240 -y 56.526741 -U 0.801260 -V 0.598317 -T 21.278909
n -t 19.000000 -s 1 -x 58.497056 -y 96.016351 -U 0.397253 -V -0.917709 -T 13.747212
n -t 19.000000 -s 0 -x 78.504450 -y 49.198290 -U -0.926280 -V 0.376837 -T 15.703984
n -t 19.000000 -s 4 -x 34.238190 -y 66.489410 -U 0.677521 -V 0.735503 -T 22.992413
n -t 19.000000 -s 7 -x 43.691340 -y 51.028598 -U 0.831774 -V 0.555114 -T 7.363413
n -t 19.000000 -s 11 -x 15.925727 -y 61.520891 -U 0.670025 -V 0.742338 -T 29.473776
n -t 19.000000 -s 16 -x 36.855694 -y 43.248317 -U -0.099090 -V 0.995079 -T 11.926514
n -t 19.000000 -s 17 -x 24.084258 -y 50.805238 -U 0.531862 -V 0.846831 -T 21.790690
n -t 20.000000 -s 2 -x 38.993882 -y 65.508160 -U 0.000000 -V 0.000000 -T 0.000000
n -t 20.000000 -s 3 -x 47.709500 -y 57.125058 -U 0.000000 -V 0.000000 -T 0.000000
n -t 20.000000 -s 1 -x 58.894308 -y 95.098642 -U 0.000000 -V 0.000000 -T 0.000000
n -t 20.000000 -s 0 -x 77.578170 -y 49.575127 -U 0.000000 -V 0.000000 -T 0.000000
n -t 20.000000 -s 4 -x 34.915711 -y 67.224913 -U 0.000000 -V 0.000000 -T 0.000000
n -t 20.000000 -s 7 -x 44.523114 -y 51.583712 -U 0.000000 -V 0.000000 -T 0.000000
n -t 20.000000 -s 11 -x 16.595753 -y 62.263229 -U 0.000000 -V 0.000000 -T 0.000000
n -t 20.000000 -s 16 -x 36.756604 -y 44.243396 -U 0.000000 -V 0.000000 -T 0.000000
n -t 20.000000 -s 17 -x 24.616120 -y 51.652069 -U 0.000000 -V 0.000000 -T 0.000000
n -t 20.000000 -s 2 -x 38.993882 -y 65.508160 -U 0.944879 -V 0.327421 -T 13.281650
n -t 20.000000 -s 8 -x 85.450830 -y 75.725140 -U -0.958641 -V -0.284620 -T 20.618015
n -t 20.000000 -s 1 -x 58.894308 -y 95.098642 -U 0.521905 -V -0.853004 -T 13.012438
n -t 20.000000 -s 0 -x 77.578170 -y 49.575127 -U -0.888576 -V 0.458730 -T 13.383893
n -t 20.000000 -s 4 -x 34.915711 -y 67.224913 -U 0.704002 -V 0.710198 -T 23.618859
n -t 20.000000 -s 3 -x 47.709500 -y 57.125058 -U 0.938514 -V -0.345240 -T 4.085105
n -t 20.000000 -s 11 -x 16.595753 -y 62.263229 -U 0.691480 -V 0.722396 -T 30.088430
n -t 20.000000 -s 7 -x 44.523114 -y 51.583712 -U -0.865013 -V 0.501750 -T 8.233195
n -t 20.000000 -s 17 -x 24.616120 -y 51.652069 -U 0.574724 -V 0.818348 -T 22.245779
n -t 21.000000 -s 2 -x 39.938761 -y 65.835580 -U 0.000000 -V 0.000000 -T 0.000000
n -t 21.000000 -s 8 -x 84.492189 -y 75.440520 -U 0.000000 -V 0.000000 -T 0.000000
n -t 21.000000 -s 1 -x 59.416213 -y 94.245638 -U 0.000000 -V 0.000000 -T 0.000000
n -t 21.000000 -s 0 -x 76.689595 -y 50.033857 -U 0.000000 -V 0.000000 -T 0.000000
n -t 21.000000 -s 4 -x 35.619713 -y 67.935111 -U 0.000000 -V 0.000000 -T 0.000000
n -t 21.000000 -s 3 -x 48.648014 -y 56.779817 -U 0.000000 -V 0.000000 -T 0.000000
n -t 21.000000 -s 11 -x 17.287232 -y 62.985625 -U 0.000000 -V 0.000000 -T 0.000000
n -t 21.000000 -s 7 -x 43.658101 -y 52.085462 -U 0.000000 -V 0.000000 -T 0.000000
n -t 21.000000 -s 17 -x 25.190844 -y 52.470417 -U 0.000000 -V 0.000000 -T 0.000000
n -t 21.000000 -s 2 -x 39.938761 -y 65.835580 -U 0.944879 -V 0.327421 -T 14.109815
n -t 21.000000 -s 8 -x 84.492189 -y 75.440520 -U -0.959945 -V -0.280189 -T 17.791887
n -t 21.000000 -s 1 -x 59.416213 -y 94.245638 -U 0.638142 -V -0.769919 -T 12.531291
n -t 21.000000 -s 0 -x 76.689595 -y 50.033857 -U -0.828115 -V 0.560558 -T 11.202111
n -t 21.000000 -s 4 -x 35.619713 -y 67.935111 -U 0.727178 -V 0.686448 -T 24.273423
n -t 21.000000 -s 3 -x 48.648014 -y 56.779817 -U 0.994946 -V -0.100408 -T 4.646290
n -t 21.000000 -s 11 -x 17.287232 -y 62.985625 -U 0.710832 -V 0.703362 -T 30.726619
n -t 21.000000 -s 7 -x 43.658101 -y 52.085462 -U -0.731025 -V 0.682351 -T 6.195978
n -t 21.000000 -s 17 -x 25.190844 -y 52.470417 -U 0.612557 -V 0.790427 -T 22.753553
n -t 22.000000 -s 2 -x 40.883640 -y 66.163001 -U 0.000000 -V 0.000000 -T 0.000000
n -t 22.000000 -s 8 -x 83.532245 -y 75.160331 -U 0.000000 -V 0.000000 -T 0.000000
n -t 22.000000 -s 1 -x 60.054355 -y 93.475720 -U 0.000000 -V 0.000000 -T 0.000000
n -t 22.000000 -s 0 -x 75.861480 -y 50.594415 -U 0.000000 -V 0.000000 -T 0.000000
n -t 22.000000 -s 4 -x 36.346891 -y 68.621560 -U 0.000000 -V 0.000000 -T 0.000000
n -t 22.000000 -s 3 -x 49.642960 -y 56.679409 -U 0.000000 -V 0.000000 -T 0.000000
n -t 22.000000 -s 11 -x 17.998064 -y 63.688987 -U 0.000000 -V 0.000000 -T 0.000000
n -t 22.000000 -s 7 -x 42.927076 -y 52.767813 -U 0.000000 -V 0.000000 -T 0.000000
n -t 22.000000 -s 17 -x 25.803400 -y 53.260843 -U 0.000000 -V 0.000000 -T 0.000000
n -t 22.000000 -s 2 -x 40.883640 -y 66.163001 -U 0.944879 -V 0.327421 -T 14.937980
n -t 22.000000 -s 8 -x 83.532245 -y 75.160331 -U -0.961624 -V -0.274372 -T 14.966243
n -t 22.000000 -s 1 -x 60.054355 -y 93.475720 -U 0.739147 -V -0.673544 -T 12.292547
n -t 22.000000 -s 0 -x 75.861480 -y 50.594415 -U -0.728649 -V 0.684887 -T 9.224089
n -t 22.000000 -s 4 -x 36.346891 -y 68.621560 -U 0.747496 -V 0.664266 -T 24.951730
n -t 22.000000 -s 3 -x 49.642960 -y 56.679409 -U 0.999059 -V 0.043368 -T 5.360300
n -t 22.000000 -s 11 -x 17.998064 -y 63.688987 -U 0.728300 -V 0.685259 -T 31.385455
n -t 22.000000 -s 7 -x 42.927076 -y 52.767813 -U -0.447035 -V 0.894517 -T 4.632737
n -t 22.000000 -s 17 -x 25.803400 -y 53.260843 -U 0.645865 -V 0.763451 -T 23.306221
n -t 23.000000 -s 2 -x 41.828518 -y 66.490422 -U 0.000000 -V 0.000000 -T 0.000000
n -t 23.000000 -s 8 -x 82.570621 -y 74.885959 -U 0.000000 -V 0.000000 -T 0.000000
n -t 23.000000 -s 1 -x 60.793502 -y 92.802175 -U 0.000000 -V 0.000000 -T 0.000000
n -t 23.000000 -s 0 -x 75.132830 -y 51.279302 -U 0.000000 -V 0.000000 -T 0.000000
n -t 23.000000 -s 4 -x 37.094388 -y 69.285826 -U 0.000000 -V 0.000000 -T 0.000000
n -t 23.000000 -s 3 -x 50.642020 -y 56.722777 -U 0.000000 -V 0.000000 -T 0.000000
n -t 23.000000 -s 11 -x 18.726364 -y 64.374246 -U 0.000000 -V 0.000000 -T 0.000000
n -t 23.000000 -s 7 -x 42.480041 -y 53.662329 -U 0.000000 -V 0.000000 -T 0.000000
n -t 23.000000 -s 17 -x 26.449266 -y 54.024295 -U 0.000000 -V 0.000000 -T 0.000000
n -t 23.000000 -s 2 -x 41.828518 -y 66.490422 -U 0.944879 -V 0.327421 -T 15.766145
n -t 23.000000 -s 8 -x 82.570621 -y 74.885959 -U -0.963887 -V -0.266311 -T 12.141333
n -t 23.000000 -s 1 -x 60.793502 -y 92.802175 -U 0.820933 -V -0.571025 -T 12.271706
n -t 23.000000 -s 0 -x 75.132830 -y 51.279302 -U -0.564834 -V 0.825204 -T 7.551038
n -t 23.000000 -s 4 -x 37.094388 -y 69.285826 -U 0.765346 -V 0.643619 -T 25.650120
n -t 23.000000 -s 3 -x 50.642020 -y 56.722777 -U 0.991722 -V 0.128404 -T 6.134372
n -t 23.000000 -s 11 -x 18.726364 -y 64.374246 -U 0.744083 -V 0.668087 -T 32.062418
n -t 23.000000 -s 7 -x 42.480041 -y 53.662329 -U 0.026869 -V 0.999639 -T 3.849513
n -t 23.000000 -s 17 -x 26.449266 -y 54.024295 -U 0.675155 -V 0.737676 -T 23.897059
n -t 24.000000 -s 2 -x 42.773397 -y 66.817843 -U 0.000000 -V 0.000000 -T 0.000000
n -t 24.000000 -s 8 -x 81.606734 -y 74.619648 -U 0.000000 -V 0.000000 -T 0.000000
n -t 24.000000 -s 1 -x 61.614435 -y 92.231150 -U 0.000000 -V 0.000000 -T 0.000000
n -t 24.000000 -s 0 -x 74.567996 -y 52.104506 -U 0.000000 -V 0.000000 -T 0.000000
n -t 24.000000 -s 4 -x 37.859734 -y 69.929444 -U 0.000000 -V 0.000000 -T 0.000000
n -t 24.000000 -s 3 -x 51.633742 -y 56.851181 -U 0.000000 -V 0.000000 -T 0.000000
n -t 24.000000 -s 11 -x 19.470447 -y 65.042333 -U 0.000000 -V 0.000000 -T 0.000000
n -t 24.000000 -s 7 -x 42.506911 -y 54.661968 -U 0.000000 -V 0.000000 -T 0.000000
n -t 24.000000 -s 17 -x 27.124420 -y 54.761971 -U 0.000000 -V 0.000000 -T 0.000000
n -t 24.000000 -s 2 -x 42.773397 -y 66.817843 -U 0.944879 -V 0.327421 -T 16.594310
n -t 24.000000 -s 8 -x 81.606734 -y 74.619648 -U -0.967154 -V -0.254193 -T 9.317645
n -t 24.000000 -s 1 -x 61.614435 -y 92.231150 -U 0.882971 -V -0.469428 -T 12.436091
n -t 24.000000 -s 0 -x 74.567996 -y 52.104506 -U -0.312145 -V 0.950035 -T 6.320323
n -t 24.000000 -s 6 -x 82.012270 -y 95.732270 -U -0.929625 -V -0.368506 -T 25.342756
n -t 24.000000 -s 3 -x 51.633742 -y 56.851181 -U 0.983410 -V 0.181396 -T 6.934302
n -t 24.000000 -s 4 -x 37.859734 -y 69.929444 -U 0.364829 -V 0.931075 -T 17.682641
n -t 24.000000 -s 7 -x 42.506911 -y 54.661968 -U 0.463675 -V 0.886005 -T 3.890568
n -t 24.000000 -s 17 -x 27.124420 -y 54.761971 -U 0.700906 -V 0.713253 -T 24.520319
n -t 25.000000 -s 2 -x 43.718275 -y 67.145264 -U 0.000000 -V 0.000000 -T 0.000000
n -t 25.000000 -s 8 -x 80.639580 -y 74.365455 -U 0.000000 -V 0.000000 -T 0.000000
n -t 25.000000 -s 1 -x 62.497406 -y 91.761722 -U 0.000000 -V 0.000000 -T 0.000000
n -t 25.000000 -s 0 -x 74.255851 -y 53.054541 -U 0.000000 -V 0.000000 -T 0.000000
n -t 25.000000 -s 6 -x 81.082645 -y 95.363764 -U 0.000000 -V 0.000000 -T 0.000000
n -t 25.000000 -s 3 -x 52.617152 -y 57.032576 -U 0.000000 -V 0.000000 -T 0.000000
n -t 25.000000 -s 4 -x 38.224563 -y 70.860519 -U 0.000000 -V 0.000000 -T 0.000000
n -t 25.000000 -s 7 -x 42.970586 -y 55.547974 -U 0.000000 -V 0.000000 -T 0.000000
n -t 25.000000 -s 17 -x 27.825327 -y 55.475224 -U 0.000000 -V 0.000000 -T 0.000000
n -t 25.000000 -s 2 -x 43.718275 -y 67.145264 -U 0.944879 -V 0.327421 -T 17.422475
n -t 25.000000 -s 8 -x 80.639580 -y 74.365455 -U -0.972401 -V -0.233317 -T 6.496341
n -t 25.000000 -s 6 -x 81.082645 -y 95.363764 -U -0.628236 -V -0.778023 -T 10.760459
n -t 25.000000 -s 0 -x 74.255851 -y 53.054541 -U 0.011795 -V 0.999930 -T 5.653464
n -t 25.000000 -s 1 -x 62.497406 -y 91.761722 -U -0.436939 -V -0.899491 -T 5.302819
n -t 25.000000 -s 3 -x 52.617152 -y 57.032576 -U 0.976342 -V 0.216231 -T 7.746512
n -t 25.000000 -s 4 -x 38.224563 -y 70.860519 -U 0.435932 -V 0.899980 -T 17.924141
n -t 25.000000 -s 7 -x 42.970586 -y 55.547974 -U 0.696589 -V 0.717471 -T 4.403857
n -t 25.000000 -s 17 -x 27.825327 -y 55.475224 -U 0.723565 -V 0.690256 -T 25.171116
n -t 25.000000 -s 8 -x 80.639580 -y 74.365455 -U -0.993652 -V -0.112494 -T 13.473639
n -t 26.000000 -s 2 -x 44.663154 -y 67.472685 -U 0.000000 -V 0.000000 -T 0.000000
n -t 26.000000 -s 8 -x 79.645928 -y 74.252961 -U 0.000000 -V 0.000000 -T 0.000000
n -t 26.000000 -s 6 -x 80.454409 -y 94.585741 -U 0.000000 -V 0.000000 -T 0.000000
n -t 26.000000 -s 0 -x 74.267646 -y 54.054471 -U 0.000000 -V 0.000000 -T 0.000000
n -t 26.000000 -s 1 -x 62.060467 -y 90.862231 -U 0.000000 -V 0.000000 -T 0.000000
n -t 26.000000 -s 3 -x 53.593494 -y 57.248807 -U 0.000000 -V 0.000000 -T 0.000000
n -t 26.000000 -s 4 -x 38.660494 -y 71.760499 -U 0.000000 -V 0.000000 -T 0.000000
n -t 26.000000 -s 7 -x 43.667174 -y 56.265444 -U 0.000000 -V 0.000000 -T 0.000000
n -t 26.000000 -s 17 -x 28.548892 -y 56.165481 -U 0.000000 -V 0.000000 -T 0.000000
n -t 26.000000 -s 1 -x 62.060467 -y 90.862231 -U -0.008767 -V -0.999962 -T 17.414574
n -t 26.000000 -s 8 -x 79.645928 -y 74.252961 -U -0.975869 -V -0.218359 -T 3.684922
n -t 26.000000 -s 6 -x 80.454409 -y 94.585741 -U -0.532817 -V -0.846230 -T 8.266400
n -t 26.000000 -s 0 -x 74.267646 -y 54.054471 -U 0.321369 -V 0.946954 -T 5.545907
n -t 26.000000 -s 2 -x 44.663154 -y 67.472685 -U 0.650809 -V 0.759241 -T 26.497217
n -t 26.000000 -s 3 -x 53.593494 -y 57.248807 -U 0.970722 -V 0.240206 -T 8.565068
n -t 26.000000 -s 4 -x 38.660494 -y 71.760499 -U 0.498592 -V 0.866837 -T 18.261756
n -t 26.000000 -s 7 -x 43.667174 -y 56.265444 -U 0.803104 -V 0.595839 -T 5.103303
n -t 26.000000 -s 17 -x 28.548892 -y 56.165481 -U 0.743530 -V 0.668703 -T 25.845325
n -t 26.000000 -s 8 -x 79.645928 -y 74.252961 -U -0.997167 -V -0.075218 -T 10.697372
n -t 27.000000 -s 1 -x 62.051700 -y 89.862269 -U 0.000000 -V 0.000000 -T 0.000000
n -t 27.000000 -s 8 -x 78.648761 -y 74.177743 -U 0.000000 -V 0.000000 -T 0.000000
n -t 27.000000 -s 6 -x 79.921591 -y 93.739511 -U 0.000000 -V 0.000000 -T 0.000000
n -t 27.000000 -s 0 -x 74.589015 -y 55.001425 -U 0.000000 -V 0.000000 -T 0.000000
n -t 27.000000 -s 2 -x 45.313963 -y 68.231926 -U 0.000000 -V 0.000000 -T 0.000000
n -t 27.000000 -s 3 -x 54.564216 -y 57.489014 -U 0.000000 -V 0.000000 -T 0.000000
n -t 27.000000 -s 4 -x 39.159086 -y 72.627336 -U 0.000000 -V 0.000000 -T 0.000000
n -t 27.000000 -s 7 -x 44.470278 -y 56.861283 -U 0.000000 -V 0.000000 -T 0.000000
n -t 27.000000 -s 17 -x 29.292421 -y 56.834184 -U 0.000000 -V 0.000000 -T 0.000000
n -t 27.000000 -s 8 -x 78.648761 -y 74.177743 -U -0.999962 -V -0.008714 -T 15.014144
n -t 27.000000 -s 10 -x 93.381480 -y 73.466110 -U -0.999308 -V 0.037195 -T 15.614963
n -t 27.000000 -s 6 -x 79.921591 -y 93.739511 -U -0.360366 -V -0.932811 -T 5.950260
n -t 27.000000 -s 0 -x 74.589015 -y 55.001425 -U 0.545124 -V 0.838355 -T 5.848769
n -t 27.000000 -s 1 -x 62.051700 -y 89.862269 -U 0.687361 -V -0.726316 -T 2.303719
n -t 27.000000 -s 3 -x 54.564216 -y 57.489014 -U 0.966319 -V 0.257348 -T 9.387140
n -t 27.000000 -s 4 -x 39.159086 -y 72.627336 -U 0.553198 -V 0.833050 -T 18.680405
n -t 27.000000 -s 7 -x 44.470278 -y 56.861283 -U 0.855244 -V 0.518225 -T 5.872909
n -t 27.000000 -s 2 -x 45.313963 -y 68.231926 -U 0.583597 -V 0.812044 -T 7.160919
n -t 28.000000 -s 8 -x 77.648799 -y 74.169029 -U 0.000000 -V 0.000000 -T 0.000000
n -t 28.000000 -s 10 -x 92.382172 -y 73.503305 -U 0.000000 -V 0.000000 -T 0.000000
n -t 28.000000 -s 6 -x 79.561226 -y 92.806699 -U 0.000000 -V 0.000000 -T 0.000000
n -t 28.000000 -s 0 -x 75.134140 -y 55.839781 -U 0.000000 -V 0.000000 -T 0.000000
n -t 28.000000 -s 1 -x 62.739061 -y 89.135954 -U 0.000000 -V 0.000000 -T 0.000000
n -t 28.000000 -s 3 -x 55.530535 -y 57.746361 -U 0.000000 -V 0.000000 -T 0.000000
n -t 28.000000 -s 4 -x 39.712284 -y 73.460385 -U 0.000000 -V 0.000000 -T 0.000000
n -t 28.000000 -s 7 -x 45.325523 -y 57.379508 -U 0.000000 -V 0.000000 -T 0.000000
n -t 28.000000 -s 2 -x 45.897560 -y 69.043970 -U 0.000000 -V 0.000000 -T 0.000000
n -t 28.000000 -s 8 -x 77.648799 -y 74.169029 -U -0.999249 -V 0.038751 -T 12.295453
n -t 28.000000 -s 10 -x 92.382172 -y 73.503305 -U -0.996090 -V 0.088349 -T 12.928010
n -t 28.000000 -s 6 -x 79.561226 -y 92.806699 -U -0.014059 -V -0.999901 -T 4.019476