n -t * -s 0  -x 89.224379999999996 -y 69.825789999999998 -Z 0 -z 1  -v circle -c black
n -t * -s 1  -x 18.47129 -y 65.293000000000006 -Z 0 -z 1  -v circle -c black
n -t * -s 2  -x 33.42595 -y 36.047260000000001 -Z 0 -z 1  -v circle -c black
n -t * -s 3  -x 41.991689999999998 -y 58.82497 -Z 0 -z 1  -v circle -c black
n -t * -s 4  -x 71.538110000000003 -y 11.84172 -Z 0 -z 1  -v circle -c black
n -t * -s 5  -x 15.86885 -y 61.826079999999997 -Z 0 -z 1  -v circle -c black
n -t * -s 6  -x 96.581940000000003 -y 51.648539999999997 -Z 0 -z 1  -v circle -c black
n -t * -s 7  -x 86.642340000000004 -y 54.476689999999998 -Z 0 -z 1  -v circle -c black
n -t * -s 8  -x 75.45223 -y 13.23911 -Z 0 -z 1  -v circle -c black
n -t * -s 9  -x 67.335700000000003 -y 82.009950000000003 -Z 0 -z 1  -v circle -c black
n -t * -s 10  -x 16.295549999999999 -y 93.260319999999993 -Z 0 -z 1  -v circle -c black
n -t * -s 11  -x 13.51849 -y 5.529083 -Z 0 -z 1  -v circle -c black
n -t * -s 12  -x 41.156590000000001 -y 49.646650000000001 -Z 0 -z 1  -v circle -c black
n -t * -s 13  -x 69.201369999999997 -y 80.503460000000004 -Z 0 -z 1  -v circle -c black
n -t * -s 14  -x 60.096919999999997 -y 11.27228 -Z 0 -z 1  -v circle -c black
n -t * -s 15  -x 57.761429999999997 -y 77.472269999999995 -Z 0 -z 1  -v circle -c black
n -t * -s 16  -x 91.910820000000001 -y 85.072069999999997 -Z 0 -z 1  -v circle -c black
n -t * -s 17  -x 77.627669999999995 -y 64.927539999999993 -Z 0 -z 1  -v circle -c black
n -t * -s 18  -x 90.779439999999994 -y 89.636430000000004 -Z 0 -z 1  -v circle -c black
n -t * -s 19  -x 92.869 -y 95.489019999999996 -Z 0 -z 1  -v circle -c black
n -t * -s 20  -x 38.344639999999998 -y 9.8580799999999993 -Z 0 -z 2  -v circle -c black
V -t * -v 1.0a5 -a 0
W -t * -x 100 -y 100
A -t * -n 1 -p 0 -o 0x7fffffff -c 30 -a 1
A -t * -h 1 -m 1073741823 -s 0
n -t 0 -s 20 -S COLOR -c red -o black -i red -I black
n -t 0.000000 -s 20 -x 38.344640 -y 9.858080 -U 0.600540 -V 2.540627 -T 35.431327
n -t 0.000000 -s 14 -x 60.096920 -y 11.272280 -U -0.997893 -V -0.064877 -T 21.798203
n -t 0.000000 -s 2 -x 33.425950 -y 36.047260 -U 0.377998 -V -0.925807 -T 13.012486
n -t 0.000000 -s 11 -x 13.518490 -y 5.529083 -U 0.500692 -V 0.865625 -T 21.338484
n -t 0.000000 -s 4 -x 71.538110 -y 11.841720 -U -0.842961 -V 0.537975 -T 22.600495
n -t 0.000000 -s 12 -x 41.156590 -y 49.646650 -U -0.392001 -V -0.919965 -T 43.250102
n -t 0.000000 -s 8 -x 75.452230 -y 13.239110 -U -0.989336 -V -0.145652 -T 23.213002
n -t 3.000000 -s 14 -x 57.103240 -y 11.077649 -U 0.000000 -V 0.000000 -T 0.000000
n -t 3.000000 -s 2 -x 34.559943 -y 33.269840 -U 0.000000 -V 0.000000 -T 0.000000
n -t 3.000000 -s 11 -x 15.020567 -y 8.125959 -U 0.000000 -V 0.000000 -T 0.000000
n -t 3.000000 -s 4 -x 69.009227 -y 13.455644 -U 0.000000 -V 0.000000 -T 0.000000
n -t 3.000000 -s 12 -x 39.980587 -y 46.886756 -U 0.000000 -V 0.000000 -T 0.000000
n -t 3.000000 -s 8 -x 72.484223 -y 12.802153 -U 0.000000 -V 0.000000 -T 0.000000
n -t 3.000000 -s 2 -x 34.559943 -y 33.269840 -U 0.333532 -V -0.942739 -T 16.748946
n -t 3.000000 -s 12 -x 39.980587 -y 46.886756 -U 0.010853 -V -0.999941 -T 15.265557
n -t 3.000000 -s 11 -x 15.020567 -y 8.125959 -U 0.423477 -V 0.905907 -T 25.936597
n -t 3.000000 -s 14 -x 57.103240 -y 11.077649 -U -0.135744 -V 0.990744 -T 20.736386
n -t 3.000000 -s 4 -x 69.009227 -y 13.455644 -U -0.995650 -V 0.093171 -T 43.192985
n -t 3.000000 -s 8 -x 72.484223 -y 12.802153 -U -0.968507 -V 0.248985 -T 18.787496
n -t 3.000000 -s 3 -x 41.991690 -y 58.824970 -U -0.276867 -V -0.960908 -T 57.744483
n -t 6.000000 -s 2 -x 35.560541 -y 30.441625 -U 0.000000 -V 0.000000 -T 0.000000
n -t 6.000000 -s 12 -x 40.013145 -y 43.886932 -U 0.000000 -V 0.000000 -T 0.000000
n -t 6.000000 -s 11 -x 16.290998 -y 10.843679 -U 0.000000 -V 0.000000 -T 0.000000
n -t 6.000000 -s 14 -x 56.696008 -y 14.049881 -U 0.000000 -V 0.000000 -T 0.000000
n -t 6.000000 -s 4 -x 66.022277 -y 13.735156 -U 0.000000 -V 0.000000 -T 0.000000
n -t 6.000000 -s 8 -x 69.578701 -y 13.549108 -U 0.000000 -V 0.000000 -T 0.000000
n -t 6.000000 -s 3 -x 41.161088 -y 55.942246 -U 0.000000 -V 0.000000 -T 0.000000
n -t 6.000000 -s 2 -x 35.560541 -y 30.441625 -U 0.767216 -V -0.641388 -T 8.325344
n -t 6.000000 -s 12 -x 40.013145 -y 43.886932 -U 0.384644 -V -0.923065 -T 5.029931
n -t 6.000000 -s 3 -x 41.161088 -y 55.942246 -U -0.624602 -V -0.780943 -T 21.382172
n -t 6.000000 -s 14 -x 56.696008 -y 14.049881 -U -0.024046 -V 0.999711 -T 25.201386
n -t 6.000000 -s 11 -x 16.290998 -y 10.843679 -U 0.628289 -V 0.777980 -T 18.327156
n -t 6.000000 -s 4 -x 66.022277 -y 13.735156 -U -0.657994 -V 0.753023 -T 15.094748
n -t 6.000000 -s 8 -x 69.578701 -y 13.549108 -U -0.998084 -V -0.061869 -T 41.853134
n -t 6.000000 -s 12 -x 40.013145 -y 43.886932 -U 0.162956 -V -0.986633 -T 11.872719
n -t 7.000000 -s 12 -x 40.176101 -y 42.900299 -U 0.215929 -V -0.976409 -T 10.986570
n -t 8.000000 -s 12 -x 40.392030 -y 41.923890 -U 0.272068 -V -0.962278 -T 10.133224
n -t 9.000000 -s 2 -x 37.862189 -y 28.517459 -U 0.000000 -V 0.000000 -T 0.000000
n -t 9.000000 -s 12 -x 40.664099 -y 40.961612 -U 0.000000 -V 0.000000 -T 0.000000
n -t 9.000000 -s 3 -x 39.287282 -y 53.599415 -U 0.000000 -V 0.000000 -T 0.000000
n -t 9.000000 -s 14 -x 56.623870 -y 17.049014 -U 0.000000 -V 0.000000 -T 0.000000
n -t 9.000000 -s 11 -x 18.175865 -y 13.177620 -U 0.000000 -V 0.000000 -T 0.000000
n -t 9.000000 -s 4 -x 64.048293 -y 15.994224 -U 0.000000 -V 0.000000 -T 0.000000
n -t 9.000000 -s 8 -x 66.584448 -y 13.363502 -U 0.000000 -V 0.000000 -T 0.000000
n -t 9.000000 -s 2 -x 37.862189 -y 28.517459 -U 0.813665 -V 0.581334 -T 7.235545
n -t 9.000000 -s 12 -x 40.664099 -y 40.961612 -U 0.463147 -V 0.886282 -T 6.661822
n -t 9.000000 -s 3 -x 39.287282 -y 53.599415 -U -0.820917 -V -0.571047 -T 11.791588
n -t 9.000000 -s 14 -x 56.623870 -y 17.049014 -U 0.042480 -V 0.999097 -T 29.843788
n -t 9.000000 -s 11 -x 18.175865 -y 13.177620 -U 0.504846 -V 0.863209 -T 22.643531
n -t 9.000000 -s 4 -x 64.048293 -y 15.994224 -U -0.345367 -V 0.938468 -T 17.826404
n -t 9.000000 -s 8 -x 66.584448 -y 13.363502 -U -0.990189 -V 0.139732 -T 37.343448
n -t 9.000000 -s 5 -x 15.868850 -y 61.826080 -U 0.696904 -V -0.717165 -T 60.299257
n -t 9.000000 -s 1 -x 18.471290 -y 65.293000 -U 0.475937 -V -0.879480 -T 53.112556
n -t 9.000000 -s 12 -x 40.664099 -y 40.961612 -U 0.935350 -V -0.353725 -T 3.298661
n -t 10.000000 -s 12 -x 41.599448 -y 40.607888 -U 0.958978 -V -0.283480 -T 2.868253
n -t 11.000000 -s 12 -x 42.558426 -y 40.324407 -U 0.976358 -V -0.216161 -T 2.450080
n -t 12.000000 -s 2 -x 40.303185 -y 30.261461 -U 0.000000 -V 0.000000 -T 0.000000
n -t 12.000000 -s 12 -x 43.534784 -y 40.108246 -U 0.000000 -V 0.000000 -T 0.000000
n -t 12.000000 -s 3 -x 36.824531 -y 51.886274 -U 0.000000 -V 0.000000 -T 0.000000
n -t 12.000000 -s 14 -x 56.751310 -y 20.046306 -U 0.000000 -V 0.000000 -T 0.000000
n -t 12.000000 -s 11 -x 19.690403 -y 15.767248 -U 0.000000 -V 0.000000 -T 0.000000
n -t 12.000000 -s 4 -x 63.012191 -y 18.809627 -U 0.000000 -V 0.000000 -T 0.000000
n -t 12.000000 -s 8 -x 63.613880 -y 13.782699 -U 0.000000 -V 0.000000 -T 0.000000
n -t 12.000000 -s 5 -x 17.959562 -y 59.674586 -U 0.000000 -V 0.000000 -T 0.000000
n -t 12.000000 -s 1 -x 19.899100 -y 62.654561 -U 0.000000 -V 0.000000 -T 0.000000
n -t 12.000000 -s 12 -x 43.534784 -y 40.108246 -U 0.993142 -V 0.116913 -T 2.030259
n -t 12.000000 -s 3 -x 36.824531 -y 51.886274 -U 0.958324 -V 0.285684 -T 9.106098
n -t 12.000000 -s 1 -x 19.899100 -y 62.654561 -U 0.815557 -V -0.578677 -T 14.112914
n -t 12.000000 -s 17 -x 77.627670 -y 64.927540 -U -0.864239 -V -0.503082 -T 20.751688
n -t 12.000000 -s 2 -x 40.303185 -y 30.261461 -U -0.661472 -V 0.749970 -T 13.446072
n -t 12.000000 -s 14 -x 56.751310 -y 20.046306 -U 0.143430 -V 0.989660 -T 20.511381
n -t 12.000000 -s 11 -x 19.690403 -y 15.767248 -U 0.746785 -V 0.665065 -T 15.692035
n -t 12.000000 -s 4 -x 63.012191 -y 18.809627 -U -0.409513 -V 0.912304 -T 8.104585
n -t 12.000000 -s 8 -x 63.613880 -y 13.782699 -U -0.823986 -V 0.566610 -T 21.921198
n -t 14.000000 -s 3 -x 38.741178 -y 52.457643 -U 0.846376 -V -0.532585 -T 9.465084
n -t 15.000000 -s 12 -x 45.551120 -y 40.345609 -U 0.000000 -V 0.000000 -T 0.000000
n -t 15.000000 -s 3 -x 39.587554 -y 51.925057 -U 0.000000 -V 0.000000 -T 0.000000
n -t 15.000000 -s 1 -x 22.345771 -y 60.918531 -U 0.000000 -V 0.000000 -T 0.000000
n -t 15.000000 -s 17 -x 75.034954 -y 63.418295 -U 0.000000 -V 0.000000 -T 0.000000
n -t 15.000000 -s 2 -x 38.318769 -y 32.511370 -U 0.000000 -V 0.000000 -T 0.000000
n -t 15.000000 -s 14 -x 57.181600 -y 23.015287 -U 0.000000 -V 0.000000 -T 0.000000
n -t 15.000000 -s 11 -x 21.930759 -y 17.762443 -U 0.000000 -V 0.000000 -T 0.000000
n -t 15.000000 -s 4 -x 61.783651 -y 21.546540 -U 0.000000 -V 0.000000 -T 0.000000
n -t 15.000000 -s 8 -x 61.141922 -y 15.482530 -U 0.000000 -V 0.000000 -T 0.000000
n -t 15.000000 -s 12 -x 45.551120 -y 40.345609 -U 0.230036 -V 0.973182 -T 7.831917
n -t 15.000000 -s 3 -x 39.587554 -y 51.925057 -U 0.606316 -V 0.795224 -T 12.807169
n -t 15.000000 -s 1 -x 22.345771 -y 60.918531 -U 0.994044 -V 0.108976 -T 10.929928
n -t 15.000000 -s 17 -x 75.034954 -y 63.418295 -U -0.995362 -V -0.096203 -T 13.603173
n -t 15.000000 -s 2 -x 38.318769 -y 32.511370 -U -0.313801 -V 0.949489 -T 16.278360
n -t 15.000000 -s 14 -x 57.181600 -y 23.015287 -U 0.170335 -V 0.985386 -T 25.322260
n -t 15.000000 -s 11 -x 21.930759 -y 17.762443 -U 0.574686 -V 0.818374 -T 19.627839
n -t 15.000000 -s 4 -x 61.783651 -y 21.546540 -U -0.023512 -V 0.999724 -T 12.282211
n -t 15.000000 -s 8 -x 61.141922 -y 15.482530 -U -0.600894 -V 0.799329 -T 22.947784
n -t 18.000000 -s 12 -x 46.241227 -y 43.265156 -U 0.000000 -V 0.000000 -T 0.000000
n -t 18.000000 -s 3 -x 41.406501 -y 54.310730 -U 0.000000 -V 0.000000 -T 0.000000
n -t 18.000000 -s 1 -x 25.327904 -y 61.245458 -U 0.000000 -V 0.000000 -T 0.000000
n -t 18.000000 -s 17 -x 72.048868 -y 63.129685 -U 0.000000 -V 0.000000 -T 0.000000
n -t 18.000000 -s 2 -x 37.377366 -y 35.359837 -U 0.000000 -V 0.000000 -T 0.000000
n -t 18.000000 -s 14 -x 57.692606 -y 25.971445 -U 0.000000 -V 0.000000 -T 0.000000
n -t 18.000000 -s 11 -x 23.654817 -y 20.217565 -U 0.000000 -V 0.000000 -T 0.000000
n -t 18.000000 -s 4 -x 61.713116 -y 24.545710 -U 0.000000 -V 0.000000 -T 0.000000
n -t 18.000000 -s 8 -x 59.339240 -y 17.880517 -U 0.000000 -V 0.000000 -T 0.000000
n -t 18.000000 -s 3 -x 41.406501 -y 54.310730 -U 0.986654 -V 0.162829 -T 7.852659
n -t 18.000000 -s 15 -x 57.761430 -y 77.472270 -U -0.743535 -V -0.668697 -T 11.575881
n -t 18.000000 -s 1 -x 25.327904 -y 61.245458 -U 0.752104 -V 0.659044 -T 12.876302
n -t 18.000000 -s 17 -x 72.048868 -y 63.129685 -U -0.798353 -V 0.602190 -T 10.963033
n -t 18.000000 -s 12 -x 46.241227 -y 43.265156 -U -0.673499 -V 0.739188 -T 16.672637
n -t 18.000000 -s 7 -x 86.642340 -y 54.476690 -U -0.998866 -V 0.047607 -T 23.372345
n -t 18.000000 -s 2 -x 37.377366 -y 35.359837 -U -0.362156 -V 0.932117 -T 6.530723
n -t 18.000000 -s 14 -x 57.692606 -y 25.971445 -U 0.340473 -V 0.940254 -T 16.459154
n -t 18.000000 -s 4 -x 61.713116 -y 24.545710 -U -0.596426 -V 0.802668 -T 21.056685
n -t 21.000000 -s 3 -x 44.366464 -y 54.799218 -U 0.000000 -V 0.000000 -T 0.000000
n -t 21.000000 -s 15 -x 55.530826 -y 75.466178 -U 0.000000 -V 0.000000 -T 0.000000
n -t 21.000000 -s 1 -x 27.584217 -y 63.222590 -U 0.000000 -V 0.000000 -T 0.000000
n -t 21.000000 -s 17 -x 69.653809 -y 64.936254 -U 0.000000 -V 0.000000 -T 0.000000
n -t 21.000000 -s 12 -x 44.220731 -y 45.482720 -U 0.000000 -V 0.000000 -T 0.000000
n -t 21.000000 -s 7 -x 83.645742 -y 54.619511 -U 0.000000 -V 0.000000 -T 0.000000
n -t 21.000000 -s 2 -x 36.290898 -y 38.156189 -U 0.000000 -V 0.000000 -T 0.000000
n -t 21.000000 -s 14 -x 58.714023 -y 28.792209 -U 0.000000 -V 0.000000 -T 0.000000
n -t 21.000000 -s 4 -x 59.923838 -y 26.953714 -U 0.000000 -V 0.000000 -T 0.000000
n -t 21.000000 -s 3 -x 44.366464 -y 54.799218 -U 0.616667 -V 0.787224 -T 10.685697
n -t 21.000000 -s 15 -x 55.530826 -y 75.466178 -U -0.924432 -V 0.381346 -T 4.948816
n -t 21.000000 -s 1 -x 27.584217 -y 63.222590 -U 0.546845 -V 0.837234 -T 16.877961
n -t 21.000000 -s 9 -x 67.335700 -y 82.009950 -U -0.433114 -V -0.901339 -T 5.166267
n -t 21.000000 -s 5 -x 17.959562 -y 59.674586 -U 0.982858 -V 0.184364 -T 19.183118
n -t 21.000000 -s 17 -x 69.653809 -y 64.936254 -U -0.935203 -V -0.354112 -T 4.871340
n -t 21.000000 -s 12 -x 44.220731 -y 45.482720 -U -0.900044 -V 0.435799 -T 8.229473
n -t 21.000000 -s 7 -x 83.645742 -y 54.619511 -U -0.958024 -V -0.286689 -T 19.360301
n -t 21.000000 -s 2 -x 36.290898 -y 38.156189 -U 0.802249 -V 0.596989 -T 18.279954
n -t 21.000000 -s 15 -x 55.530826 -y 75.466178 -U -0.661691 -V -0.749776 -T 6.913867
n -t 22.000000 -s 15 -x 54.869135 -y 74.716402 -U -0.598502 -V -0.801121 -T 5.534840
n -t 23.000000 -s 15 -x 54.270632 -y 73.915280 -U -0.502867 -V -0.864364 -T 4.203042
n -t 24.000000 -s 3 -x 46.216465 -y 57.160890 -U 0.000000 -V 0.000000 -T 0.000000
n -t 24.000000 -s 15 -x 53.767765 -y 73.050917 -U 0.000000 -V 0.000000 -T 0.000000
n -t 24.000000 -s 1 -x 29.224752 -y 65.734292 -U 0.000000 -V 0.000000 -T 0.000000
n -t 24.000000 -s 9 -x 66.036357 -y 79.305933 -U 0.000000 -V 0.000000 -T 0.000000
n -t 24.000000 -s 5 -x 20.908136 -y 60.227677 -U 0.000000 -V 0.000000 -T 0.000000
n -t 24.000000 -s 17 -x 66.848199 -y 63.873919 -U 0.000000 -V 0.000000 -T 0.000000
n -t 24.000000 -s 12 -x 41.520599 -y 46.790119 -U 0.000000 -V 0.000000 -T 0.000000
n -t 24.000000 -s 7 -x 80.771671 -y 53.759443 -U 0.000000 -V 0.000000 -T 0.000000
n -t 24.000000 -s 2 -x 38.697646 -y 39.947156 -U 0.000000 -V 0.000000 -T 0.000000
n -t 24.000000 -s 15 -x 53.767765 -y 73.050917 -U -0.414511 -V -0.910044 -T 2.437001
n -t 24.000000 -s 9 -x 66.036357 -y 79.305933 -U -0.919685 -V 0.392658 -T 14.438380
n -t 24.000000 -s 1 -x 29.224752 -y 65.734292 -U 0.438607 -V 0.898679 -T 21.410298
n -t 24.000000 -s 13 -x 69.201370 -y 80.503460 -U -0.457638 -V 0.889139 -T 5.029377
n -t 24.000000 -s 3 -x 46.216465 -y 57.160890 -U -0.485902 -V 0.874013 -T 15.643067
n -t 24.000000 -s 17 -x 66.848199 -y 63.873919 -U 0.007405 -V 0.999973 -T 6.959410
n -t 24.000000 -s 12 -x 41.520599 -y 46.790119 -U -0.281552 -V 0.959546 -T 10.318299
n -t 24.000000 -s 7 -x 80.771671 -y 53.759443 -U -0.978391 -V 0.206764 -T 14.178315
n -t 24.000000 -s 2 -x 38.697646 -y 39.947156 -U 0.643061 -V 0.765815 -T 21.864096
n -t 27.000000 -s 15 -x 52.757601 -y 70.833138 -U 0.000000 -V 0.000000 -T 0.000000
n -t 27.000000 -s 9 -x 63.277303 -y 80.483906 -U 0.000000 -V 0.000000 -T 0.000000
n -t 27.000000 -s 1 -x 30.540573 -y 68.430328 -U 0.000000 -V 0.000000 -T 0.000000
n -t 27.000000 -s 13 -x 67.828456 -y 83.170876 -U 0.000000 -V 0.000000 -T 0.000000
n -t 27.000000 -s 3 -x 44.758759 -y 59.782930 -U 0.000000 -V 0.000000 -T 0.000000
n -t 27.000000 -s 17 -x 66.870415 -y 66.873837 -U 0.000000 -V 0.000000 -T 0.000000
n -t 27.000000 -s 12 -x 40.675944 -y 49.668757 -U 0.000000 -V 0.000000 -T 0.000000
n -t 27.000000 -s 7 -x 77.836498 -y 54.379734 -U 0.000000 -V 0.000000 -T 0.000000
n -t 27.000000 -s 2 -x 40.626830 -y 42.244600 -U 0.000000 -V 0.000000 -T 0.000000
n -t 27.000000 -s 15 -x 52.757601 -y 70.833138 -U 0.230036 -V 0.973182 -T 7.831917
n -t 27.000000 -s 9 -x 63.277303 -y 80.483906 -U -0.584152 -V 0.811644 -T 14.924335
n -t 27.000000 -s 10 -x 16.295550 -y 93.260320 -U 0.999622 -V -0.027482 -T 24.130650
n -t 27.000000 -s 13 -x 67.828456 -y 83.170876 -U 0.092208 -V 0.995740 -T 9.466610
n -t 27.000000 -s 1 -x 30.540573 -y 68.430328 -U 0.701822 -V 0.712352 -T 14.072666
n -t 27.000000 -s 17 -x 66.870415 -y 66.873837 -U 0.156157 -V 0.987732 -T 11.725023
n -t 27.000000 -s 3 -x 44.758759 -y 59.782930 -U -0.691944 -V 0.721951 -T 6.274601
n -t 27.000000 -s 7 -x 77.836498 -y 54.379734 -U -0.676922 -V 0.736055 -T 13.495121
n -t 27.000000 -s 12 -x 40.675944 -y 49.668757 -U 0.688003 -V 0.725708 -T 20.179094
n -t 30.000000 -s 15 -x 53.447708 -y 73.752685 -U 0.000000 -V 0.000000 -T 0.000000
n -t 30.000000 -s 9 -x 61.524847 -y 82.918838 -U 0.000000 -V 0.000000 -T 0.000000
n -t 30.000000 -s 10 -x 19.294417 -y 93.177873 -U 0.000000 -V 0.000000 -T 0.000000
n -t 30.000000 -s 13 -x 68.105081 -y 86.158095 -U 0.000000 -V 0.000000 -T 0.000000
n -t 30.000000 -s 1 -x 32.646041 -y 70.567384 -U 0.000000 -V 0.000000 -T 0.000000
n -t 30.000000 -s 17 -x 67.338886 -y 69.837034 -U 0.000000 -V 0.000000 -T 0.000000
n -t 30.000000 -s 3 -x 42.682926 -y 61.948783 -U 0.000000 -V 0.000000 -T 0.000000
n -t 30.000000 -s 7 -x 75.805733 -y 56.587898 -U 0.000000 -V 0.000000 -T 0.000000
n -t 30.000000 -s 12 -x 42.739953 -y 51.845881 -U 0.000000 -V 0.000000 -T 0.000000
n -t 30.000000 -s 9 -x 61.524847 -y 82.918838 -U -0.853114 -V 0.521725 -T 6.053125
n -t 30.000000 -s 13 -x 68.105081 -y 86.158095 -U -0.646964 -V 0.762520 -T 18.152837
n -t 30.000000 -s 10 -x 19.294417 -y 93.177873 -U 0.958459 -V 0.285231 -T 23.917868
n -t 30.000000 -s 18 -x 90.779440 -y 89.636430 -U -0.890434 -V 0.455113 -T 22.771442
n -t 30.000000 -s 15 -x 53.447708 -y 73.752685 -U -0.673499 -V 0.739188 -T 16.672637
n -t 30.000000 -s 17 -x 67.338886 -y 69.837034 -U 0.191239 -V 0.981544 -T 16.545235
n -t 30.000000 -s 1 -x 32.646041 -y 70.567384 -U 0.989952 -V 0.141407 -T 9.669832
n -t 30.000000 -s 7 -x 75.805733 -y 56.587898 -U -0.326581 -V 0.945169 -T 16.237167
n -t 30.000000 -s 3 -x 42.682926 -y 61.948783 -U 0.807656 -V 0.589654 -T 16.935325
n -t 33.000000 -s 9 -x 58.965505 -y 84.484012 -U 0.000000 -V 0.000000 -T 0.000000
n -t 33.000000 -s 13 -x 66.164188 -y 88.445656 -U 0.000000 -V 0.000000 -T 0.000000
n -t 33.000000 -s 10 -x 22.169793 -y 94.033567 -U 0.000000 -V 0.000000 -T 0.000000
n -t 33.000000 -s 18 -x 88.108138 -y 91.001768 -U 0.000000 -V 0.000000 -T 0.000000
n -t 33.000000 -s 15 -x 51.427211 -y 75.970249 -U 0.000000 -V 0.000000 -T 0.000000
n -t 33.000000 -s 17 -x 67.912602 -y 72.781664 -U 0.000000 -V 0.000000 -T 0.000000
n -t 33.000000 -s 1 -x 35.615895 -y 70.991605 -U 0.000000 -V 0.000000 -T 0.000000
n -t 33.000000 -s 7 -x 74.825988 -y 59.423406 -U 0.000000 -V 0.000000 -T 0.000000
n -t 33.000000 -s 3 -x 45.105894 -y 63.717745 -U 0.000000 -V 0.000000 -T 0.000000
n -t 33.000000 -s 9 -x 58.965505 -y 84.484012 -U -0.086818 -V 0.996224 -T 9.249698
n -t 33.000000 -s 13 -x 66.164188 -y 88.445656 -U -0.569333 -V 0.822107 -T 14.054555
n -t 33.000000 -s 10 -x 22.169793 -y 94.033567 -U 0.964683 -V 0.263413 -T 22.650476
n -t 33.000000 -s 18 -x 88.108138 -y 91.001768 -U -0.869009 -V 0.494797 -T 18.185712
n -t 33.000000 -s 15 -x 51.427211 -y 75.970249 -U -0.385502 -V 0.922707 -T 19.213613
n -t 33.000000 -s 19 -x 92.869000 -y 95.489020 -U -0.996232 -V -0.086727 -T 20.642181
n -t 33.000000 -s 1 -x 35.615895 -y 70.991605 -U 0.700383 -V 0.713767 -T 11.999767
n -t 33.000000 -s 17 -x 67.912602 -y 72.781664 -U 0.543965 -V 0.839108 -T 8.074035
n -t 33.000000 -s 3 -x 45.105894 -y 63.717745 -U 0.636078 -V 0.771625 -T 20.526686
n -t 39.000000 -s 13 -x 62.748188 -y 93.378296 -U -0.433495 -V 0.901156 -T 7.210276
n -t 40.000000 -s 13 -x 62.314693 -y 94.279452 -U -0.433495 -V 0.901156 -T 6.210276
n -t 41.000000 -s 13 -x 61.881198 -y 95.180608 -U -0.433495 -V 0.901156 -T 5.210276
n -t 42.000000 -s 13 -x 61.447703 -y 96.081764 -U -0.433495 -V 0.901156 -T 4.210276
n -t 43.000000 -s 13 -x 61.014208 -y 96.982920 -U -0.433495 -V 0.901156 -T 3.210276
n -t 44.000000 -s 13 -x 60.580713 -y 97.884076 -U -0.433495 -V 0.901156 -T 2.210276
n -t 45.000000 -s 13 -x 60.147218 -y 98.785232 -U -0.433495 -V 0.901156 -T 1.210276
n -t 46.000000 -s 13 -x 59.713724 -y 99.686388 -U -0.433495 -V 0.901156 -T 0.210276
n -t 47.000000 -s 13 -x 59.622570 -y 99.875880 -U 0.000000 -V 0.000000 -T 0.000000
n -t 48.000000 -s 20 -x 59.622570 -y 99.875880 -U 0.692178 -V -0.614116 -T 42.932425
n -t 48.000000 -s 13 -x 59.622570 -y 99.875880 -U 0.000000 -V 0.000000 -T 0.000000
n -t 49.000000 -s 13 -x 59.622570 -y 99.875880 -U 0.748028 -V -0.663667 -T 0.925337
n -t 50.000000 -s 13 -x 60.314748 -y 99.261764 -U 0.748028 -V -0.663667 -T 0.925337
n -t 51.000000 -s 13 -x 61.006925 -y 98.647649 -U 0.748028 -V -0.663667 -T 0.925336
n -t 52.000000 -s 13 -x 61.699103 -y 98.033533 -U 0.748028 -V -0.663667 -T 0.925336
n -t 53.000000 -s 13 -x 62.391280 -y 97.419418 -U 0.748028 -V -0.663667 -T 0.925337
n -t 54.000000 -s 13 -x 63.083458 -y 96.805302 -U 0.748028 -V -0.663667 -T 0.925336
n -t 55.000000 -s 13 -x 63.775635 -y 96.191187 -U 0.748028 -V -0.663667 -T 0.925336
n -t 56.000000 -s 13 -x 64.467813 -y 95.577071 -U 0.748028 -V -0.663667 -T 0.925337
n -t 57.000000 -s 9 -x 58.162461 -y 93.698785 -U 0.000000 -V 0.000000 -T 0.000000
n -t 57.000000 -s 13 -x 65.159990 -y 94.962956 -U 0.000000 -V 0.000000 -T 0.000000
n -t 57.000000 -s 10 -x 44.020325 -y 100.000000 -U 0.000000 -V 0.000000 -T 0.000000
n -t 57.000000 -s 18 -x 72.304597 -y 100.000000 -U 0.000000 -V 0.000000 -T 0.000000
n -t 57.000000 -s 15 -x 44.020325 -y 93.698785 -U 0.000000 -V 0.000000 -T 0.000000
n -t 57.000000 -s 19 -x 72.304597 -y 93.698785 -U 0.000000 -V 0.000000 -T 0.000000
n -t 57.000000 -s 1 -x 44.020325 -y 79.556649 -U 0.000000 -V 0.000000 -T 0.000000
n -t 57.000000 -s 17 -x 72.304597 -y 79.556649 -U 0.000000 -V 0.000000 -T 0.000000
n -t 57.000000 -s 3 -x 58.162461 -y 79.556649 -U 0.000000 -V 0.000000 -T 0.000000
n -t 57.000000 -s 13 -x 65.159990 -y 94.962956 -U 0.748028 -V -0.663667 -T 0.925336
n -t 57.000000 -s 17 -x 72.304597 -y 79.556649 -U 0.996446 -V 0.084235 -T 7.717134
n -t 57.000000 -s 19 -x 72.304597 -y 93.698785 -U 0.996446 -V 0.084235 -T 7.717134
n -t 57.000000 -s 3 -x 58.162461 -y 79.556649 -U 0.996446 -V 0.084235 -T 7.717134
n -t 57.000000 -s 18 -x 72.304597 -y 100.000000 -U 1.000000 -V 0.000000 -T 7.689707
n -t 57.000000 -s 1 -x 44.020325 -y 79.556649 -U 0.996446 -V 0.084235 -T 7.717134
n -t 57.000000 -s 9 -x 58.162461 -y 93.698785 -U 0.773482 -V 0.633818 -T 9.941675
n -t 57.000000 -s 15 -x 44.020325 -y 93.698785 -U 0.996446 -V 0.084235 -T 7.717134
n -t 57.000000 -s 10 -x 44.020325 -y 100.000000 -U 1.000000 -V 0.000000 -T 7.689707
n -t 58.000000 -s 17 -x 73.301042 -y 79.640884 -U -0.049411 -V 0.998779 -T 7.646227
n -t 59.000000 -s 17 -x 73.251632 -y 80.639663 -U -0.049411 -V 0.998779 -T 6.646227
n -t 60.000000 -s 17 -x 73.202221 -y 81.638441 -U -0.049411 -V 0.998779 -T 5.646227
n -t 61.000000 -s 17 -x 73.152810 -y 82.637220 -U -0.049411 -V 0.998779 -T 4.646227
n -t 62.000000 -s 17 -x 73.103399 -y 83.635999 -U -0.049411 -V 0.998779 -T 3.646227
n -t 63.000000 -s 17 -x 73.053988 -y 84.634777 -U -0.049411 -V 0.998779 -T 2.646227
n -t 64.000000 -s 17 -x 73.004577 -y 85.633556 -U -0.049411 -V 0.998779 -T 1.646227
n -t 65.000000 -s 17 -x 72.955166 -y 86.632334 -U -0.049411 -V 0.998779 -T 0.646227
n -t 66.000000 -s 17 -x 72.923236 -y 87.277772 -U 0.000000 -V 0.000000 -T 0.000000
n -t 67.000000 -s 17 -x 72.923236 -y 87.277772 -U 0.000000 -V 0.000000 -T 0.000000
n -t 68.000000 -s 13 -x 65.852168 -y 94.348840 -U 0.000000 -V 0.000000 -T 0.000000
n -t 68.000000 -s 17 -x 72.923236 -y 87.277772 -U 0.000000 -V 0.000000 -T 0.000000
n -t 68.000000 -s 19 -x 79.994303 -y 94.348840 -U 0.000000 -V 0.000000 -T 0.000000
n -t 68.000000 -s 3 -x 65.852168 -y 80.206704 -U 0.000000 -V 0.000000 -T 0.000000
n -t 68.000000 -s 18 -x 79.994303 -y 100.000000 -U 0.000000 -V 0.000000 -T 0.000000
n -t 68.000000 -s 1 -x 51.710032 -y 80.206704 -U 0.000000 -V 0.000000 -T 0.000000
n -t 68.000000 -s 9 -x 65.852168 -y 100.000000 -U 0.000000 -V 0.000000 -T 0.000000
n -t 68.000000 -s 15 -x 51.710032 -y 94.348840 -U 0.000000 -V 0.000000 -T 0.000000
n -t 68.000000 -s 10 -x 51.710032 -y 100.000000 -U 0.000000 -V 0.000000 -T 0.000000
n -t 68.000000 -s 17 -x 72.923236 -y 87.277772 -U 0.864392 -V 0.502818 -T 0.628054
n -t 68.000000 -s 0 -x 89.224380 -y 69.825790 -U -0.407133 -V 0.913369 -T 3.969527
n -t 68.000000 -s 16 -x 91.910820 -y 85.072070 -U -0.862759 -V 0.505616 -T 4.986984
n -t 68.000000 -s 3 -x 65.852168 -y 80.206704 -U 0.748028 -V -0.663667 -T 10.178701
n -t 68.000000 -s 18 -x 79.994303 -y 100.000000 -U 1.000000 -V 0.000000 -T 7.613953
n -t 68.000000 -s 1 -x 51.710032 -y 80.206704 -U 0.748028 -V -0.663667 -T 10.178701
n -t 68.000000 -s 9 -x 65.852168 -y 100.000000 -U 1.000000 -V 0.000000 -T 7.613953
n -t 68.000000 -s 13 -x 65.852168 -y 94.348840 -U -0.694917 -V -0.719090 -T 9.394193
n -t 68.000000 -s 10 -x 51.710032 -y 100.000000 -U 1.000000 -V 0.000000 -T 7.613953
n -t 68.000000 -s 0 -x 89.224380 -y 69.825790 -U -0.630423 -V 0.776252 -T 13.779947
n -t 69.000000 -s 0 -x 88.593957 -y 70.602042 -U -0.630423 -V 0.776252 -T 12.779947
n -t 70.000000 -s 0 -x 87.963535 -y 71.378294 -U -0.630423 -V 0.776252 -T 11.779947
n -t 71.000000 -s 0 -x 87.333112 -y 72.154546 -U -0.630423 -V 0.776252 -T 10.779947
n -t 72.000000 -s 0 -x 86.702689 -y 72.930798 -U -0.630423 -V 0.776252 -T 9.779947
n -t 73.000000 -s 0 -x 86.072266 -y 73.707050 -U -0.630423 -V 0.776252 -T 8.779947
n -t 74.000000 -s 0 -x 85.441844 -y 74.483302 -U -0.630423 -V 0.776252 -T 7.779947
n -t 75.000000 -s 0 -x 84.811421 -y 75.259554 -U -0.630423 -V 0.776252 -T 6.779947
n -t 76.000000 -s 0 -x 84.180998 -y 76.035806 -U -0.630423 -V 0.776252 -T 5.779947
n -t 77.000000 -s 0 -x 83.550575 -y 76.812058 -U -0.630423 -V 0.776252 -T 4.779947
n -t 78.000000 -s 0 -x 82.920153 -y 77.588310 -U -0.630423 -V 0.776252 -T 3.779947
n -t 79.000000 -s 17 -x 73.466121 -y 87.593569 -U 0.000000 -V 0.000000 -T 0.000000
n -t 79.000000 -s 0 -x 82.289730 -y 78.364562 -U 0.000000 -V 0.000000 -T 0.000000
n -t 79.000000 -s 16 -x 87.608256 -y 87.593569 -U 0.000000 -V 0.000000 -T 0.000000
n -t 79.000000 -s 3 -x 73.466121 -y 73.451433 -U 0.000000 -V 0.000000 -T 0.000000
n -t 79.000000 -s 18 -x 87.608256 -y 100.000000 -U 0.000000 -V 0.000000 -T 0.000000
n -t 79.000000 -s 1 -x 59.323985 -y 73.451433 -U 0.000000 -V 0.000000 -T 0.000000
n -t 79.000000 -s 9 -x 73.466121 -y 100.000000 -U 0.000000 -V 0.000000 -T 0.000000
n -t 79.000000 -s 13 -x 59.323985 -y 87.593569 -U 0.000000 -V 0.000000 -T 0.000000
n -t 79.000000 -s 10 -x 59.323985 -y 100.000000 -U 0.000000 -V 0.000000 -T 0.000000
n -t 79.000000 -s 0 -x 82.289730 -y 78.364562 -U -0.439291 -V 0.898345 -T 2.753659
n -t 79.000000 -s 6 -x 96.581940 -y 51.648540 -U -0.089995 -V 0.995942 -T 15.108931
n -t 79.000000 -s 16 -x 87.608256 -y 87.593569 -U 0.748028 -V -0.663667 -T 10.178702
n -t 79.000000 -s 7 -x 74.825988 -y 59.423406 -U 0.652010 -V 0.758210 -T 9.592005
n -t 79.000000 -s 18 -x 87.608256 -y 100.000000 -U 0.834894 -V -0.550411 -T 9.119667
n -t 79.000000 -s 3 -x 73.466121 -y 73.451433 -U -0.694917 -V -0.719090 -T 9.394193
n -t 79.000000 -s 19 -x 79.994303 -y 94.348840 -U 0.864392 -V 0.502818 -T 1.256108
n -t 79.000000 -s 17 -x 73.466121 -y 87.593569 -U -0.694917 -V -0.719090 -T 9.394193
n -t 79.000000 -s 9 -x 73.466121 -y 100.000000 -U -0.792748 -V -0.609550 -T 8.234878
n -t 88.000000 -s 6 -x 95.771983 -y 60.612020 -U -0.501266 -V 0.865293 -T 15.203184
n -t 89.000000 -s 6 -x 95.270717 -y 61.477313 -U -0.501266 -V 0.865293 -T 14.203184
n -t 90.000000 -s 0 -x 81.080073 -y 80.838298 -U 0.000000 -V 0.000000 -T 0.000000
n -t 90.000000 -s 6 -x 94.769451 -y 62.342606 -U 0.000000 -V 0.000000 -T 0.000000
n -t 90.000000 -s 16 -x 95.222209 -y 80.838298 -U 0.000000 -V 0.000000 -T 0.000000
n -t 90.000000 -s 7 -x 81.080073 -y 66.696162 -U 0.000000 -V 0.000000 -T 0.000000
n -t 90.000000 -s 18 -x 95.222209 -y 94.980434 -U 0.000000 -V 0.000000 -T 0.000000
n -t 90.000000 -s 3 -x 66.937938 -y 66.696162 -U 0.000000 -V 0.000000 -T 0.000000
n -t 90.000000 -s 19 -x 81.080073 -y 94.980434 -U 0.000000 -V 0.000000 -T 0.000000
n -t 90.000000 -s 17 -x 66.937938 -y 80.838298 -U 0.000000 -V 0.000000 -T 0.000000
n -t 90.000000 -s 9 -x 66.937938 -y 94.980434 -U 0.000000 -V 0.000000 -T 0.000000
n -t 90.000000 -s 16 -x 95.222209 -y 80.838298 -U -0.694917 -V -0.719090 -T 9.394193
n -t 90.000000 -s 6 -x 94.769451 -y 62.342606 -U 0.908776 -V -0.417283 -T 5.755595
n -t 90.000000 -s 0 -x 81.080073 -y 80.838298 -U 0.941771 -V -0.336255 -T 20.089731
n -t 90.000000 -s 7 -x 81.080073 -y 66.696162 -U 0.748028 -V -0.663667 -T 10.178701
n -t 90.000000 -s 18 -x 95.222209 -y 94.980434 -U 0.577438 -V -0.816434 -T 8.274115
n -t 90.000000 -s 3 -x 66.937938 -y 66.696162 -U 0.748028 -V -0.663667 -T 10.178701
n -t 90.000000 -s 19 -x 81.080073 -y 94.980434 -U 0.748028 -V -0.663667 -T 10.178701
n -t 90.000000 -s 17 -x 66.937938 -y 80.838298 -U 0.748028 -V -0.663667 -T 10.178701
n -t 90.000000 -s 9 -x 66.937938 -y 94.980434 -U 0.748028 -V -0.663667 -T 10.178701
n -t 90.000000 -s 6 -x 94.769451 -y 62.342606 -U -0.366710 -V 0.930335 -T 5.019001
n -t 91.000000 -s 6 -x 94.402741 -y 63.272941 -U -0.366710 -V 0.930335 -T 4.019001
n -t 92.000000 -s 6 -x 94.036030 -y 64.203276 -U -0.366710 -V 0.930335 -T 3.019001
n -t 93.000000 -s 6 -x 93.669320 -y 65.133612 -U -0.366710 -V 0.930335 -T 2.019001
n -t 94.000000 -s 6 -x 93.302610 -y 66.063947 -U -0.366710 -V 0.930335 -T 1.019001
n -t 95.000000 -s 6 -x 92.935900 -y 66.994282 -U -0.366710 -V 0.930335 -T 0.019001
n -t 96.000000 -s 6 -x 92.928932 -y 67.011959 -U 0.000000 -V 0.000000 -T 0.000000
n -t 97.000000 -s 6 -x 92.928932 -y 67.011959 -U 0.000000 -V 0.000000 -T 0.000000
n -t 98.000000 -s 6 -x 92.928932 -y 67.011959 -U 0.000000 -V 0.000000 -T 0.000000
n -t 99.000000 -s 6 -x 92.928932 -y 67.011959 -U 0.000000 -V 0.000000 -T 0.000000
