n -t * -s 0  -x 38.819429999999997 -y 50.970030000000001 -Z 0 -z 1  -v circle -c black
n -t * -s 1  -x 13.12115 -y 29.947019999999998 -Z 0 -z 1  -v circle -c black
n -t * -s 2  -x 53.933900000000001 -y 1.521444 -Z 0 -z 1  -v circle -c black
n -t * -s 3  -x 78.977940000000004 -y 95.142690000000002 -Z 0 -z 1  -v circle -c black
n -t * -s 4  -x 74.323040000000006 -y 50.664589999999997 -Z 0 -z 1  -v circle -c black
n -t * -s 5  -x 59.243760000000002 -y 72.137500000000003 -Z 0 -z 1  -v circle -c black
n -t * -s 6  -x 73.535179999999997 -y 67.340360000000004 -Z 0 -z 1  -v circle -c black
n -t * -s 7  -x 77.190640000000002 -y 50.079929999999997 -Z 0 -z 1  -v circle -c black
n -t * -s 8  -x 83.554190000000006 -y 6.3978580000000003 -Z 0 -z 1  -v circle -c black
n -t * -s 9  -x 94.092020000000005 -y 9.724596 -Z 0 -z 1  -v circle -c black
n -t * -s 10  -x 58.386360000000003 -y 24.450150000000001 -Z 0 -z 2  -v circle -c black
V -t * -v 1.0a5 -a 0
W -t * -x 100 -y 100
A -t * -n 1 -p 0 -o 0x7fffffff -c 30 -a 1
A -t * -h 1 -m 1073741823 -s 0
n -t 0 -s 10 -S COLOR -c red -o black -i red -I black
n -t 0.000000 -s 10 -x 58.386360 -y 24.450150 -U -0.799953 -V -0.188599 -T 71.872272
n -t 0.000000 -s 2 -x 53.933900 -y 1.521444 -U 0.190626 -V 0.981663 -T 23.357011
n -t 0.000000 -s 0 -x 38.819430 -y 50.970030 -U 0.200406 -V -0.979713 -T 27.069031
n -t 0.000000 -s 8 -x 83.554190 -y 6.397858 -U -0.995089 -V 0.098981 -T 39.503958
n -t 0.000000 -s 4 -x 74.323040 -y 50.664590 -U -0.928042 -V -0.372475 -T 32.411043
n -t 0.000000 -s 9 -x 94.092020 -y 9.724596 -U -0.999867 -V 0.016337 -T 35.710426
n -t 0.000000 -s 7 -x 77.190640 -y 50.079930 -U -0.853360 -V -0.521322 -T 22.035583
n -t 0.000000 -s 2 -x 53.933900 -y 1.521444 -U 0.190626 -V 0.981663 -T 18.357011
n -t 1.000000 -s 2 -x 54.124526 -y 2.503107 -U 0.000000 -V 0.000000 -T 0.000000
n -t 1.000000 -s 0 -x 39.019836 -y 49.990317 -U 0.000000 -V 0.000000 -T 0.000000
n -t 1.000000 -s 8 -x 82.559101 -y 6.496839 -U 0.000000 -V 0.000000 -T 0.000000
n -t 1.000000 -s 4 -x 73.394998 -y 50.292115 -U 0.000000 -V 0.000000 -T 0.000000
n -t 1.000000 -s 9 -x 93.092153 -y 9.740933 -U 0.000000 -V 0.000000 -T 0.000000
n -t 1.000000 -s 7 -x 76.337280 -y 49.558608 -U 0.000000 -V 0.000000 -T 0.000000
n -t 1.000000 -s 2 -x 54.124526 -y 2.503107 -U 0.157129 -V 0.987578 -T 22.032125
n -t 1.000000 -s 0 -x 39.019836 -y 49.990317 -U 0.169477 -V -0.985534 -T 26.106417
n -t 1.000000 -s 8 -x 82.559101 -y 6.496839 -U -0.995739 -V 0.092219 -T 39.282222
n -t 1.000000 -s 4 -x 73.394998 -y 50.292115 -U -0.929456 -V -0.368932 -T 32.223916
n -t 1.000000 -s 9 -x 93.092153 -y 9.740933 -U -0.999943 -V 0.010659 -T 35.507764
n -t 1.000000 -s 7 -x 76.337280 -y 49.558608 -U -0.859420 -V -0.511270 -T 21.818055
n -t 1.000000 -s 2 -x 54.124526 -y 2.503107 -U 0.157129 -V 0.987578 -T 17.032125
n -t 2.000000 -s 2 -x 54.281655 -y 3.490685 -U 0.000000 -V 0.000000 -T 0.000000
n -t 2.000000 -s 0 -x 39.189313 -y 49.004783 -U 0.000000 -V 0.000000 -T 0.000000
n -t 2.000000 -s 8 -x 81.563362 -y 6.589059 -U 0.000000 -V 0.000000 -T 0.000000
n -t 2.000000 -s 4 -x 72.465541 -y 49.923183 -U 0.000000 -V 0.000000 -T 0.000000
n -t 2.000000 -s 9 -x 92.092210 -y 9.751593 -U 0.000000 -V 0.000000 -T 0.000000
n -t 2.000000 -s 7 -x 75.477860 -y 49.047337 -U 0.000000 -V 0.000000 -T 0.000000
n -t 2.000000 -s 2 -x 54.281655 -y 3.490685 -U 0.120806 -V 0.992676 -T 20.734120
n -t 2.000000 -s 0 -x 39.189313 -y 49.004783 -U 0.137266 -V -0.990534 -T 25.170087
n -t 2.000000 -s 8 -x 81.563362 -y 6.589059 -U -0.996334 -V 0.085550 -T 39.062249
n -t 2.000000 -s 4 -x 72.465541 -y 49.923183 -U -0.930830 -V -0.365453 -T 32.037241
n -t 2.000000 -s 9 -x 92.092210 -y 9.751593 -U -0.999987 -V 0.005076 -T 35.306211
n -t 2.000000 -s 7 -x 75.477860 -y 49.047337 -U -0.865207 -V -0.501414 -T 21.603386
n -t 2.000000 -s 2 -x 54.281655 -y 3.490685 -U 0.120806 -V 0.992676 -T 15.734120
n -t 3.000000 -s 2 -x 54.402461 -y 4.483361 -U 0.000000 -V 0.000000 -T 0.000000
n -t 3.000000 -s 0 -x 39.326579 -y 48.014249 -U 0.000000 -V 0.000000 -T 0.000000
n -t 3.000000 -s 8 -x 80.567028 -y 6.674608 -U 0.000000 -V 0.000000 -T 0.000000
n -t 3.000000 -s 4 -x 71.534711 -y 49.557730 -U 0.000000 -V 0.000000 -T 0.000000
n -t 3.000000 -s 9 -x 91.092223 -y 9.756669 -U 0.000000 -V 0.000000 -T 0.000000
n -t 3.000000 -s 7 -x 74.612653 -y 48.545923 -U 0.000000 -V 0.000000 -T 0.000000
n -t 3.000000 -s 2 -x 54.402461 -y 4.483361 -U 0.081377 -V 0.996683 -T 19.465551
n -t 3.000000 -s 0 -x 39.326579 -y 48.014249 -U 0.103780 -V -0.994600 -T 24.260897
n -t 3.000000 -s 8 -x 80.567028 -y 6.674608 -U -0.996877 -V 0.078973 -T 38.843980
n -t 3.000000 -s 4 -x 71.534711 -y 49.557730 -U -0.932164 -V -0.362037 -T 31.851000
n -t 3.000000 -s 9 -x 91.092223 -y 9.756669 -U -1.000000 -V -0.000412 -T 35.105725
n -t 3.000000 -s 7 -x 74.612653 -y 48.545923 -U -0.870731 -V -0.491760 -T 21.391401
n -t 3.000000 -s 2 -x 54.402461 -y 4.483361 -U 0.081377 -V 0.996683 -T 14.465551
n -t 4.000000 -s 2 -x 54.483837 -y 5.480044 -U 0.000000 -V 0.000000 -T 0.000000
n -t 4.000000 -s 0 -x 39.430359 -y 47.019648 -U 0.000000 -V 0.000000 -T 0.000000
n -t 4.000000 -s 8 -x 79.570151 -y 6.753581 -U 0.000000 -V 0.000000 -T 0.000000
n -t 4.000000 -s 4 -x 70.602548 -y 49.195693 -U 0.000000 -V 0.000000 -T 0.000000
n -t 4.000000 -s 9 -x 90.092223 -y 9.756257 -U 0.000000 -V 0.000000 -T 0.000000
n -t 4.000000 -s 7 -x 73.741922 -y 48.054163 -U 0.000000 -V 0.000000 -T 0.000000
n -t 4.000000 -s 2 -x 54.483837 -y 5.480044 -U 0.038549 -V 0.999257 -T 18.229259
n -t 4.000000 -s 0 -x 39.430359 -y 47.019648 -U 0.069037 -V -0.997614 -T 23.379675
n -t 4.000000 -s 8 -x 79.570151 -y 6.753581 -U -0.997369 -V 0.072488 -T 38.627358
n -t 4.000000 -s 4 -x 70.602548 -y 49.195693 -U -0.933459 -V -0.358684 -T 31.665171
n -t 4.000000 -s 9 -x 90.092223 -y 9.756257 -U -0.999983 -V -0.005805 -T 34.906263
n -t 4.000000 -s 7 -x 73.741922 -y 48.054163 -U -0.876000 -V -0.482311 -T 21.181930
n -t 4.000000 -s 2 -x 54.483837 -y 5.480044 -U 0.038549 -V 0.999257 -T 13.229259
n -t 5.000000 -s 2 -x 54.522386 -y 6.479301 -U 0.000000 -V 0.000000 -T 0.000000
n -t 5.000000 -s 0 -x 39.499395 -y 46.022034 -U 0.000000 -V 0.000000 -T 0.000000
n -t 5.000000 -s 8 -x 78.572782 -y 6.826069 -U 0.000000 -V 0.000000 -T 0.000000
n -t 5.000000 -s 4 -x 69.669089 -y 48.837009 -U 0.000000 -V 0.000000 -T 0.000000
n -t 5.000000 -s 9 -x 89.092240 -y 9.750452 -U 0.000000 -V 0.000000 -T 0.000000
n -t 5.000000 -s 7 -x 72.865922 -y 47.571852 -U 0.000000 -V 0.000000 -T 0.000000
n -t 5.000000 -s 2 -x 54.522386 -y 6.479301 -U -0.007974 -V 0.999968 -T 17.028395
n -t 5.000000 -s 0 -x 39.499395 -y 46.022034 -U 0.033074 -V -0.999453 -T 22.527204
n -t 5.000000 -s 1 -x 13.121150 -y 29.947020 -U 0.796611 -V -0.604493 -T 34.048387
n -t 5.000000 -s 4 -x 69.669089 -y 48.837009 -U -0.934716 -V -0.355394 -T 31.479737
n -t 5.000000 -s 8 -x 78.572782 -y 6.826069 -U -0.994535 -V 0.104402 -T 24.319085
n -t 5.000000 -s 7 -x 72.865922 -y 47.571852 -U -0.881025 -V -0.473070 -T 20.974812
n -t 5.000000 -s 9 -x 89.092240 -y 9.750452 -U -0.999824 -V -0.018740 -T 20.567121
n -t 5.000000 -s 2 -x 54.522386 -y 6.479301 -U -0.007974 -V 0.999968 -T 12.028395
n -t 6.000000 -s 2 -x 54.514411 -y 7.479269 -U 0.000000 -V 0.000000 -T 0.000000
n -t 6.000000 -s 0 -x 39.532469 -y 45.022581 -U 0.000000 -V 0.000000 -T 0.000000
n -t 6.000000 -s 1 -x 13.917761 -y 29.342527 -U 0.000000 -V 0.000000 -T 0.000000
n -t 6.000000 -s 4 -x 68.734372 -y 48.481615 -U 0.000000 -V 0.000000 -T 0.000000
n -t 6.000000 -s 8 -x 77.578247 -y 6.930471 -U 0.000000 -V 0.000000 -T 0.000000
n -t 6.000000 -s 7 -x 71.984897 -y 47.098782 -U 0.000000 -V 0.000000 -T 0.000000
n -t 6.000000 -s 9 -x 88.092416 -y 9.731712 -U 0.000000 -V 0.000000 -T 0.000000
n -t 6.000000 -s 2 -x 54.514411 -y 7.479269 -U -0.058474 -V 0.998289 -T 15.866435
n -t 6.000000 -s 0 -x 39.532469 -y 45.022581 -U -0.004053 -V -0.999992 -T 21.704204
n -t 6.000000 -s 1 -x 13.917761 -y 29.342527 -U 0.784682 -V -0.619898 -T 32.531318
n -t 6.000000 -s 4 -x 68.734372 -y 48.481615 -U -0.935938 -V -0.352166 -T 31.294680
n -t 6.000000 -s 8 -x 77.578247 -y 6.930471 -U -0.995647 -V 0.093206 -T 24.096501
n -t 6.000000 -s 7 -x 71.984897 -y 47.098782 -U -0.885814 -V -0.464041 -T 20.769896
n -t 6.000000 -s 9 -x 88.092416 -y 9.731712 -U -0.999628 -V -0.027259 -T 20.371207
n -t 6.000000 -s 2 -x 54.514411 -y 7.479269 -U -0.058474 -V 0.998289 -T 10.866435
n -t 7.000000 -s 2 -x 54.455938 -y 8.477558 -U 0.000000 -V 0.000000 -T 0.000000
n -t 7.000000 -s 0 -x 39.528417 -y 44.022590 -U 0.000000 -V 0.000000 -T 0.000000
n -t 7.000000 -s 1 -x 14.702443 -y 28.722629 -U 0.000000 -V 0.000000 -T 0.000000
n -t 7.000000 -s 4 -x 67.798435 -y 48.129449 -U 0.000000 -V 0.000000 -T 0.000000
n -t 7.000000 -s 8 -x 76.582600 -y 7.023677 -U 0.000000 -V 0.000000 -T 0.000000
n -t 7.000000 -s 7 -x 71.099084 -y 46.634740 -U 0.000000 -V 0.000000 -T 0.000000
n -t 7.000000 -s 9 -x 87.092787 -y 9.704453 -U 0.000000 -V 0.000000 -T 0.000000
n -t 7.000000 -s 2 -x 54.455938 -y 8.477558 -U -0.113191 -V 0.993573 -T 14.747175
n -t 7.000000 -s 0 -x 39.528417 -y 44.022590 -U -0.042267 -V -0.999106 -T 20.911320
n -t 7.000000 -s 1 -x 14.702443 -y 28.722629 -U 0.771649 -V -0.636049 -T 31.027203
n -t 7.000000 -s 4 -x 67.798435 -y 48.129449 -U -0.937123 -V -0.348999 -T 31.109982
n -t 7.000000 -s 8 -x 76.582600 -y 7.023677 -U -0.996611 -V 0.082261 -T 23.876834
n -t 7.000000 -s 7 -x 71.099084 -y 46.634740 -U -0.890376 -V -0.455226 -T 20.567036
n -t 7.000000 -s 9 -x 87.092787 -y 9.704453 -U -0.999369 -V -0.035518 -T 20.176693
n -t 7.000000 -s 2 -x 54.455938 -y 8.477558 -U -0.113191 -V 0.993573 -T 9.747175
n -t 8.000000 -s 2 -x 54.342747 -y 9.471132 -U 0.000000 -V 0.000000 -T 0.000000
n -t 8.000000 -s 0 -x 39.486149 -y 43.023483 -U 0.000000 -V 0.000000 -T 0.000000
n -t 8.000000 -s 1 -x 15.474092 -y 28.086581 -U 0.000000 -V 0.000000 -T 0.000000
n -t 8.000000 -s 4 -x 66.861312 -y 47.780450 -U 0.000000 -V 0.000000 -T 0.000000
n -t 8.000000 -s 8 -x 75.585989 -y 7.105939 -U 0.000000 -V 0.000000 -T 0.000000
n -t 8.000000 -s 7 -x 70.208708 -y 46.179515 -U 0.000000 -V 0.000000 -T 0.000000
n -t 8.000000 -s 9 -x 86.093418 -y 9.668935 -U 0.000000 -V 0.000000 -T 0.000000
n -t 8.000000 -s 2 -x 54.342747 -y 9.471132 -U -0.172290 -V 0.985046 -T 13.674713
n -t 8.000000 -s 0 -x 39.486149 -y 43.023483 -U -0.081470 -V -0.996676 -T 20.149105
n -t 8.000000 -s 1 -x 15.474092 -y 28.086581 -U 0.757369 -V -0.652987 -T 29.537127
n -t 8.000000 -s 4 -x 66.861312 -y 47.780450 -U -0.938274 -V -0.345893 -T 30.925627
n -t 8.000000 -s 8 -x 75.585989 -y 7.105939 -U -0.997436 -V 0.071568 -T 23.659923
n -t 8.000000 -s 7 -x 70.208708 -y 46.179515 -U -0.894721 -V -0.446626 -T 20.366095
n -t 8.000000 -s 9 -x 86.093418 -y 9.668935 -U -0.999052 -V -0.043522 -T 19.983481
n -t 8.000000 -s 2 -x 54.342747 -y 9.471132 -U -0.172290 -V 0.985046 -T 8.674713
n -t 9.000000 -s 2 -x 54.170457 -y 10.456178 -U 0.000000 -V 0.000000 -T 0.000000
n -t 9.000000 -s 0 -x 39.404679 -y 42.026807 -U 0.000000 -V 0.000000 -T 0.000000
n -t 9.000000 -s 1 -x 16.231461 -y 27.433594 -U 0.000000 -V 0.000000 -T 0.000000
n -t 9.000000 -s 4 -x 65.923038 -y 47.434557 -U 0.000000 -V 0.000000 -T 0.000000
n -t 9.000000 -s 8 -x 74.588553 -y 7.177506 -U 0.000000 -V 0.000000 -T 0.000000
n -t 9.000000 -s 7 -x 69.313987 -y 45.732889 -U 0.000000 -V 0.000000 -T 0.000000
n -t 9.000000 -s 9 -x 85.094366 -y 9.625414 -U 0.000000 -V 0.000000 -T 0.000000
n -t 9.000000 -s 2 -x 54.170457 -y 10.456178 -U -0.235800 -V 0.971802 -T 12.653387
n -t 9.000000 -s 0 -x 39.404679 -y 42.026807 -U -0.121538 -V -0.992587 -T 19.417999
n -t 9.000000 -s 1 -x 16.231461 -y 27.433594 -U 0.741678 -V -0.670756 -T 28.062305
n -t 9.000000 -s 4 -x 65.923038 -y 47.434557 -U -0.939391 -V -0.342847 -T 30.741598
n -t 9.000000 -s 8 -x 74.588553 -y 7.177506 -U -0.998130 -V 0.061125 -T 23.445611
n -t 9.000000 -s 7 -x 69.313987 -y 45.732889 -U -0.898857 -V -0.438242 -T 20.166944
n -t 9.000000 -s 9 -x 85.094366 -y 9.625414 -U -0.998685 -V -0.051274 -T 19.791480
n -t 9.000000 -s 2 -x 54.170457 -y 10.456178 -U -0.235800 -V 0.971802 -T 7.653387
n -t 10.000000 -s 2 -x 53.934657 -y 11.427979 -U 0.000000 -V 0.000000 -T 0.000000
n -t 10.000000 -s 0 -x 39.283141 -y 41.034221 -U 0.000000 -V 0.000000 -T 0.000000
n -t 10.000000 -s 1 -x 16.973139 -y 26.762837 -U 0.000000 -V 0.000000 -T 0.000000
n -t 10.000000 -s 4 -x 64.983646 -y 47.091710 -U 0.000000 -V 0.000000 -T 0.000000
n -t 10.000000 -s 8 -x 73.590423 -y 7.238631 -U 0.000000 -V 0.000000 -T 0.000000
n -t 10.000000 -s 7 -x 68.415130 -y 45.294647 -U 0.000000 -V 0.000000 -T 0.000000
n -t 10.000000 -s 9 -x 84.095681 -y 9.574140 -U 0.000000 -V 0.000000 -T 0.000000
n -t 10.000000 -s 2 -x 53.934657 -y 11.427979 -U -0.303553 -V 0.952815 -T 11.687668
n -t 10.000000 -s 0 -x 39.283141 -y 41.034221 -U -0.162325 -V -0.986737 -T 18.718315
n -t 10.000000 -s 1 -x 16.973139 -y 26.762837 -U 0.724383 -V -0.689398 -T 26.604103
n -t 10.000000 -s 4 -x 64.983646 -y 47.091710 -U -0.940476 -V -0.339860 -T 30.557882
n -t 10.000000 -s 8 -x 73.590423 -y 7.238631 -U -0.998702 -V 0.050934 -T 23.233750
n -t 10.000000 -s 7 -x 68.415130 -y 45.294647 -U -0.902793 -V -0.430074 -T 19.969461
n -t 10.000000 -s 9 -x 84.095681 -y 9.574140 -U -0.998271 -V -0.058780 -T 19.600605
n -t 10.000000 -s 2 -x 53.934657 -y 11.427979 -U -0.303553 -V 0.952815 -T 6.687668
n -t 11.000000 -s 2 -x 53.631104 -y 12.380794 -U 0.000000 -V 0.000000 -T 0.000000
n -t 11.000000 -s 0 -x 39.120816 -y 40.047483 -U 0.000000 -V 0.000000 -T 0.000000
n -t 11.000000 -s 1 -x 17.697522 -y 26.073439 -U 0.000000 -V 0.000000 -T 0.000000
n -t 11.000000 -s 4 -x 64.043171 -y 46.751849 -U 0.000000 -V 0.000000 -T 0.000000
n -t 11.000000 -s 8 -x 72.591721 -y 7.289566 -U 0.000000 -V 0.000000 -T 0.000000
n -t 11.000000 -s 7 -x 67.512336 -y 44.864573 -U 0.000000 -V 0.000000 -T 0.000000
n -t 11.000000 -s 9 -x 83.097410 -y 9.515360 -U 0.000000 -V 0.000000 -T 0.000000
n -t 11.000000 -s 2 -x 53.631104 -y 12.380794 -U -0.375091 -V 0.926988 -T 10.781982
n -t 11.000000 -s 0 -x 39.120816 -y 40.047483 -U -0.203658 -V -0.979042 -T 18.050218
n -t 11.000000 -s 1 -x 17.697522 -y 26.073439 -U 0.705261 -V -0.708948 -T 25.164060
n -t 11.000000 -s 4 -x 64.043171 -y 46.751849 -U -0.941529 -V -0.336933 -T 30.374463
n -t 11.000000 -s 8 -x 72.591721 -y 7.289566 -U -0.999159 -V 0.040994 -T 23.024198
n -t 11.000000 -s 7 -x 67.512336 -y 44.864573 -U -0.906538 -V -0.422124 -T 19.773528
n -t 11.000000 -s 9 -x 83.097410 -y 9.515360 -U -0.997817 -V -0.066042 -T 19.410774
n -t 11.000000 -s 2 -x 53.631104 -y 12.380794 -U -0.375091 -V 0.926988 -T 5.781982
n -t 12.000000 -s 2 -x 53.256013 -y 13.307782 -U 0.000000 -V 0.000000 -T 0.000000
n -t 12.000000 -s 0 -x 38.917158 -y 39.068441 -U 0.000000 -V 0.000000 -T 0.000000
n -t 12.000000 -s 1 -x 18.402782 -y 25.364491 -U 0.000000 -V 0.000000 -T 0.000000
n -t 12.000000 -s 4 -x 63.101642 -y 46.414916 -U 0.000000 -V 0.000000 -T 0.000000
n -t 12.000000 -s 8 -x 71.592562 -y 7.330560 -U 0.000000 -V 0.000000 -T 0.000000
n -t 12.000000 -s 7 -x 66.605798 -y 44.442449 -U 0.000000 -V 0.000000 -T 0.000000
n -t 12.000000 -s 9 -x 82.099593 -y 9.449318 -U 0.000000 -V 0.000000 -T 0.000000
n -t 12.000000 -s 2 -x 53.256013 -y 13.307782 -U -0.449586 -V 0.893237 -T 9.940452
n -t 12.000000 -s 1 -x 18.402782 -y 25.364491 -U 0.981396 -V -0.191997 -T 16.549909
n -t 12.000000 -s 0 -x 38.917158 -y 39.068441 -U -0.136426 -V -0.990650 -T 31.316415
n -t 12.000000 -s 4 -x 63.101642 -y 46.414916 -U -0.942551 -V -0.334063 -T 30.191327
n -t 12.000000 -s 8 -x 71.592562 -y 7.330560 -U -0.999510 -V 0.031304 -T 22.816820
n -t 12.000000 -s 7 -x 66.605798 -y 44.442449 -U -0.910100 -V -0.414390 -T 19.579038
n -t 12.000000 -s 9 -x 82.099593 -y 9.449318 -U -0.997327 -V -0.073067 -T 19.221913
n -t 12.000000 -s 2 -x 53.256013 -y 13.307782 -U -0.449586 -V 0.893237 -T 4.940452
n -t 12.000000 -s 1 -x 18.402782 -y 25.364491 -U 0.000000 -V 0.000000 -T 0.000000
n -t 12.000000 -s 0 -x 38.917158 -y 39.068441 -U 0.000000 -V 0.000000 -T 0.000000
n -t 12.000000 -s 4 -x 63.101642 -y 46.414916 -U 0.000000 -V 0.000000 -T 0.000000
n -t 12.000000 -s 8 -x 71.592562 -y 7.330560 -U 0.000000 -V 0.000000 -T 0.000000
n -t 12.000000 -s 7 -x 66.605798 -y 44.442449 -U 0.000000 -V 0.000000 -T 0.000000
n -t 12.000000 -s 9 -x 82.099593 -y 9.449318 -U 0.000000 -V 0.000000 -T 0.000000
n -t 13.000000 -s 2 -x 52.806427 -y 14.201019 -U -0.525765 -V 0.850630 -T 4.166554
n -t 13.000000 -s 1 -x 18.402782 -y 25.364491 -U 0.000000 -V 0.000000 -T 0.000000
n -t 13.000000 -s 0 -x 38.917158 -y 39.068441 -U 0.000000 -V 0.000000 -T 0.000000
n -t 13.000000 -s 4 -x 63.101642 -y 46.414916 -U 0.000000 -V 0.000000 -T 0.000000
n -t 13.000000 -s 8 -x 71.592562 -y 7.330560 -U 0.000000 -V 0.000000 -T 0.000000
n -t 13.000000 -s 7 -x 66.605798 -y 44.442449 -U 0.000000 -V 0.000000 -T 0.000000
n -t 13.000000 -s 9 -x 82.099593 -y 9.449318 -U 0.000000 -V 0.000000 -T 0.000000
n -t 14.000000 -s 2 -x 52.280661 -y 15.051649 -U -0.601893 -V 0.798577 -T 3.462701
n -t 14.000000 -s 1 -x 18.402782 -y 25.364491 -U 0.000000 -V 0.000000 -T 0.000000
n -t 14.000000 -s 0 -x 38.917158 -y 39.068441 -U 0.000000 -V 0.000000 -T 0.000000
n -t 14.000000 -s 4 -x 63.101642 -y 46.414916 -U 0.000000 -V 0.000000 -T 0.000000
n -t 14.000000 -s 8 -x 71.592562 -y 7.330560 -U 0.000000 -V 0.000000 -T 0.000000
n -t 14.000000 -s 7 -x 66.605798 -y 44.442449 -U 0.000000 -V 0.000000 -T 0.000000
n -t 14.000000 -s 9 -x 82.099593 -y 9.449318 -U 0.000000 -V 0.000000 -T 0.000000
n -t 15.000000 -s 2 -x 51.678768 -y 15.850225 -U -0.675841 -V 0.737048 -T 2.829806
n -t 15.000000 -s 1 -x 18.402782 -y 25.364491 -U 0.000000 -V 0.000000 -T 0.000000
n -t 15.000000 -s 0 -x 38.917158 -y 39.068441 -U 0.000000 -V 0.000000 -T 0.000000
n -t 15.000000 -s 4 -x 63.101642 -y 46.414916 -U 0.000000 -V 0.000000 -T 0.000000
n -t 15.000000 -s 8 -x 71.592562 -y 7.330560 -U 0.000000 -V 0.000000 -T 0.000000
n -t 15.000000 -s 7 -x 66.605798 -y 44.442449 -U 0.000000 -V 0.000000 -T 0.000000
n -t 15.000000 -s 9 -x 82.099593 -y 9.449318 -U 0.000000 -V 0.000000 -T 0.000000
n -t 16.000000 -s 2 -x 51.002927 -y 16.587273 -U -0.745271 -V 0.666762 -T 2.266905
n -t 16.000000 -s 1 -x 18.402782 -y 25.364491 -U 0.000000 -V 0.000000 -T 0.000000
n -t 16.000000 -s 0 -x 38.917158 -y 39.068441 -U 0.000000 -V 0.000000 -T 0.000000
n -t 16.000000 -s 4 -x 63.101642 -y 46.414916 -U 0.000000 -V 0.000000 -T 0.000000
n -t 16.000000 -s 8 -x 71.592562 -y 7.330560 -U 0.000000 -V 0.000000 -T 0.000000
n -t 16.000000 -s 7 -x 66.605798 -y 44.442449 -U 0.000000 -V 0.000000 -T 0.000000
n -t 16.000000 -s 9 -x 82.099593 -y 9.449318 -U 0.000000 -V 0.000000 -T 0.000000
n -t 17.000000 -s 2 -x 50.257656 -y 17.254034 -U -0.807935 -V 0.589271 -T 1.770959
n -t 17.000000 -s 1 -x 18.402782 -y 25.364491 -U 0.000000 -V 0.000000 -T 0.000000
n -t 17.000000 -s 0 -x 38.917158 -y 39.068441 -U 0.000000 -V 0.000000 -T 0.000000
n -t 17.000000 -s 4 -x 63.101642 -y 46.414916 -U 0.000000 -V 0.000000 -T 0.000000
n -t 17.000000 -s 8 -x 71.592562 -y 7.330560 -U 0.000000 -V 0.000000 -T 0.000000
n -t 17.000000 -s 7 -x 66.605798 -y 44.442449 -U 0.000000 -V 0.000000 -T 0.000000
n -t 17.000000 -s 9 -x 82.099593 -y 9.449318 -U 0.000000 -V 0.000000 -T 0.000000
n -t 18.000000 -s 2 -x 49.449721 -y 17.843306 -U -0.862016 -V 0.506882 -T 1.336908
n -t 18.000000 -s 1 -x 18.402782 -y 25.364491 -U 0.000000 -V 0.000000 -T 0.000000
n -t 18.000000 -s 0 -x 38.917158 -y 39.068441 -U 0.000000 -V 0.000000 -T 0.000000
n -t 18.000000 -s 4 -x 63.101642 -y 46.414916 -U 0.000000 -V 0.000000 -T 0.000000
n -t 18.000000 -s 8 -x 71.592562 -y 7.330560 -U 0.000000 -V 0.000000 -T 0.000000
n -t 18.000000 -s 7 -x 66.605798 -y 44.442449 -U 0.000000 -V 0.000000 -T 0.000000
n -t 18.000000 -s 9 -x 82.099593 -y 9.449318 -U 0.000000 -V 0.000000 -T 0.000000
n -t 19.000000 -s 2 -x 48.587705 -y 18.350187 -U -0.906416 -V 0.422385 -T 0.958024
n -t 19.000000 -s 1 -x 18.402782 -y 25.364491 -U 0.000000 -V 0.000000 -T 0.000000
n -t 19.000000 -s 0 -x 38.917158 -y 39.068441 -U 0.000000 -V 0.000000 -T 0.000000
n -t 19.000000 -s 4 -x 63.101642 -y 46.414916 -U 0.000000 -V 0.000000 -T 0.000000
n -t 19.000000 -s 8 -x 71.592562 -y 7.330560 -U 0.000000 -V 0.000000 -T 0.000000
n -t 19.000000 -s 7 -x 66.605798 -y 44.442449 -U 0.000000 -V 0.000000 -T 0.000000
n -t 19.000000 -s 9 -x 82.099593 -y 9.449318 -U 0.000000 -V 0.000000 -T 0.000000
n -t 20.000000 -s 2 -x 47.719336 -y 18.754843 -U -0.940674 -V 0.339312 -T 0.668314
n -t 20.000000 -s 1 -x 18.402782 -y 25.364491 -U 0.000000 -V 0.000000 -T 0.000000
n -t 20.000000 -s 0 -x 38.917158 -y 39.068441 -U 0.000000 -V 0.000000 -T 0.000000
n -t 20.000000 -s 4 -x 63.101642 -y 46.414916 -U 0.000000 -V 0.000000 -T 0.000000
n -t 20.000000 -s 8 -x 71.592562 -y 7.330560 -U 0.000000 -V 0.000000 -T 0.000000
n -t 20.000000 -s 7 -x 66.605798 -y 44.442449 -U 0.000000 -V 0.000000 -T 0.000000
n -t 20.000000 -s 9 -x 82.099593 -y 9.449318 -U 0.000000 -V 0.000000 -T 0.000000
n -t 21.000000 -s 2 -x 47.090671 -y 18.981610 -U 0.000000 -V 0.000000 -T 0.000000
n -t 21.000000 -s 1 -x 18.402782 -y 25.364491 -U 0.000000 -V 0.000000 -T 0.000000
n -t 21.000000 -s 0 -x 38.917158 -y 39.068441 -U 0.000000 -V 0.000000 -T 0.000000
n -t 21.000000 -s 4 -x 63.101642 -y 46.414916 -U 0.000000 -V 0.000000 -T 0.000000
n -t 21.000000 -s 8 -x 71.592562 -y 7.330560 -U 0.000000 -V 0.000000 -T 0.000000
n -t 21.000000 -s 7 -x 66.605798 -y 44.442449 -U 0.000000 -V 0.000000 -T 0.000000
n -t 21.000000 -s 9 -x 82.099593 -y 9.449318 -U 0.000000 -V 0.000000 -T 0.000000
n -t 21.000000 -s 2 -x 47.090671 -y 18.981610 -U -0.964449 -V 0.264268 -T 5.706181
n -t 21.000000 -s 1 -x 18.402782 -y 25.364491 -U 0.880230 -V -0.474546 -T 10.272799
n -t 21.000000 -s 0 -x 38.917158 -y 39.068441 -U -0.330854 -V -0.943682 -T 34.673762
n -t 21.000000 -s 4 -x 63.101642 -y 46.414916 -U -0.949497 -V -0.313776 -T 37.552962
n -t 21.000000 -s 8 -x 71.592562 -y 7.330560 -U -0.999464 -V -0.032748 -T 30.021315
n -t 21.000000 -s 7 -x 66.605798 -y 44.442449 -U -0.930978 -V -0.365074 -T 26.873286
n -t 21.000000 -s 9 -x 82.099593 -y 9.449318 -U -0.993153 -V -0.116823 -T 26.551918
n -t 21.000000 -s 2 -x 47.090671 -y 18.981610 -U -0.964449 -V 0.264268 -T 0.706181
n -t 21.000000 -s 1 -x 18.402782 -y 25.364491 -U 0.000000 -V 0.000000 -T 0.000000
n -t 21.000000 -s 0 -x 38.917158 -y 39.068441 -U 0.000000 -V 0.000000 -T 0.000000
n -t 21.000000 -s 4 -x 63.101642 -y 46.414916 -U 0.000000 -V 0.000000 -T 0.000000
n -t 21.000000 -s 8 -x 71.592562 -y 7.330560 -U 0.000000 -V 0.000000 -T 0.000000
n -t 21.000000 -s 7 -x 66.605798 -y 44.442449 -U 0.000000 -V 0.000000 -T 0.000000
n -t 21.000000 -s 9 -x 82.099593 -y 9.449318 -U 0.000000 -V 0.000000 -T 0.000000
n -t 22.000000 -s 2 -x 46.409595 -y 19.168231 -U -0.980301 -V 0.197508 -T 0.735175
n -t 22.000000 -s 1 -x 18.402782 -y 25.364491 -U 0.000000 -V 0.000000 -T 0.000000
n -t 22.000000 -s 0 -x 38.917158 -y 39.068441 -U 0.000000 -V 0.000000 -T 0.000000
n -t 22.000000 -s 4 -x 63.101642 -y 46.414916 -U 0.000000 -V 0.000000 -T 0.000000
n -t 22.000000 -s 8 -x 71.592562 -y 7.330560 -U 0.000000 -V 0.000000 -T 0.000000
n -t 22.000000 -s 7 -x 66.605798 -y 44.442449 -U 0.000000 -V 0.000000 -T 0.000000
n -t 22.000000 -s 9 -x 82.099593 -y 9.449318 -U 0.000000 -V 0.000000 -T 0.000000
n -t 23.000000 -s 2 -x 45.688902 -y 19.313433 -U -0.990324 -V 0.138773 -T 0.757165
n -t 23.000000 -s 1 -x 18.402782 -y 25.364491 -U 0.000000 -V 0.000000 -T 0.000000
n -t 23.000000 -s 0 -x 38.917158 -y 39.068441 -U 0.000000 -V 0.000000 -T 0.000000
n -t 23.000000 -s 4 -x 63.101642 -y 46.414916 -U 0.000000 -V 0.000000 -T 0.000000
n -t 23.000000 -s 8 -x 71.592562 -y 7.330560 -U 0.000000 -V 0.000000 -T 0.000000
n -t 23.000000 -s 7 -x 66.605798 -y 44.442449 -U 0.000000 -V 0.000000 -T 0.000000
n -t 23.000000 -s 9 -x 82.099593 -y 9.449318 -U 0.000000 -V 0.000000 -T 0.000000
n -t 24.000000 -s 2 -x 44.939063 -y 19.418507 -U -0.996164 -V 0.087511 -T 0.773725
n -t 24.000000 -s 1 -x 18.402782 -y 25.364491 -U 0.000000 -V 0.000000 -T 0.000000
n -t 24.000000 -s 0 -x 38.917158 -y 39.068441 -U 0.000000 -V 0.000000 -T 0.000000
n -t 24.000000 -s 4 -x 63.101642 -y 46.414916 -U 0.000000 -V 0.000000 -T 0.000000
n -t 24.000000 -s 8 -x 71.592562 -y 7.330560 -U 0.000000 -V 0.000000 -T 0.000000
n -t 24.000000 -s 7 -x 66.605798 -y 44.442449 -U 0.000000 -V 0.000000 -T 0.000000
n -t 24.000000 -s 9 -x 82.099593 -y 9.449318 -U 0.000000 -V 0.000000 -T 0.000000
n -t 25.000000 -s 2 -x 44.168307 -y 19.486217 -U -0.999074 -V 0.043027 -T 0.786129
n -t 25.000000 -s 1 -x 18.402782 -y 25.364491 -U 0.000000 -V 0.000000 -T 0.000000
n -t 25.000000 -s 0 -x 38.917158 -y 39.068441 -U 0.000000 -V 0.000000 -T 0.000000
n -t 25.000000 -s 4 -x 63.101642 -y 46.414916 -U 0.000000 -V 0.000000 -T 0.000000
n -t 25.000000 -s 8 -x 71.592562 -y 7.330560 -U 0.000000 -V 0.000000 -T 0.000000
n -t 25.000000 -s 7 -x 66.605798 -y 44.442449 -U 0.000000 -V 0.000000 -T 0.000000
n -t 25.000000 -s 9 -x 82.099593 -y 9.449318 -U 0.000000 -V 0.000000 -T 0.000000
n -t 26.000000 -s 2 -x 43.382906 -y 19.520042 -U -0.999990 -V 0.004578 -T 0.795383
n -t 26.000000 -s 1 -x 18.402782 -y 25.364491 -U 0.000000 -V 0.000000 -T 0.000000
n -t 26.000000 -s 0 -x 38.917158 -y 39.068441 -U 0.000000 -V 0.000000 -T 0.000000
n -t 26.000000 -s 4 -x 63.101642 -y 46.414916 -U 0.000000 -V 0.000000 -T 0.000000
n -t 26.000000 -s 8 -x 71.592562 -y 7.330560 -U 0.000000 -V 0.000000 -T 0.000000
n -t 26.000000 -s 7 -x 66.605798 -y 44.442449 -U 0.000000 -V 0.000000 -T 0.000000
n -t 26.000000 -s 9 -x 82.099593 -y 9.449318 -U 0.000000 -V 0.000000 -T 0.000000
n -t 27.000000 -s 2 -x 42.587531 -y 19.523683 -U -0.999592 -V -0.028559 -T 0.802267
n -t 27.000000 -s 1 -x 18.402782 -y 25.364491 -U 0.000000 -V 0.000000 -T 0.000000
n -t 27.000000 -s 0 -x 38.917158 -y 39.068441 -U 0.000000 -V 0.000000 -T 0.000000
n -t 27.000000 -s 4 -x 63.101642 -y 46.414916 -U 0.000000 -V 0.000000 -T 0.000000
n -t 27.000000 -s 8 -x 71.592562 -y 7.330560 -U 0.000000 -V 0.000000 -T 0.000000
n -t 27.000000 -s 7 -x 66.605798 -y 44.442449 -U 0.000000 -V 0.000000 -T 0.000000
n -t 27.000000 -s 9 -x 82.099593 -y 9.449318 -U 0.000000 -V 0.000000 -T 0.000000
n -t 28.000000 -s 2 -x 41.785591 -y 19.500771 -U -0.998371 -V -0.057064 -T 0.807377
n -t 28.000000 -s 1 -x 18.402782 -y 25.364491 -U 0.000000 -V 0.000000 -T 0.000000
n -t 28.000000 -s 0 -x 38.917158 -y 39.068441 -U 0.000000 -V 0.000000 -T 0.000000
n -t 28.000000 -s 4 -x 63.101642 -y 46.414916 -U 0.000000 -V 0.000000 -T 0.000000
n -t 28.000000 -s 8 -x 71.592562 -y 7.330560 -U 0.000000 -V 0.000000 -T 0.000000
n -t 28.000000 -s 7 -x 66.605798 -y 44.442449 -U 0.000000 -V 0.000000 -T 0.000000
n -t 28.000000 -s 9 -x 82.099593 -y 9.449318 -U 0.000000 -V 0.000000 -T 0.000000
n -t 29.000000 -s 2 -x 40.979530 -y 19.454699 -U -0.996669 -V -0.081553 -T 0.811163
n -t 29.000000 -s 1 -x 18.402782 -y 25.364491 -U 0.000000 -V 0.000000 -T 0.000000
n -t 29.000000 -s 0 -x 38.917158 -y 39.068441 -U 0.000000 -V 0.000000 -T 0.000000
n -t 29.000000 -s 4 -x 63.101642 -y 46.414916 -U 0.000000 -V 0.000000 -T 0.000000
n -t 29.000000 -s 8 -x 71.592562 -y 7.330560 -U 0.000000 -V 0.000000 -T 0.000000
n -t 29.000000 -s 7 -x 66.605798 -y 44.442449 -U 0.000000 -V 0.000000 -T 0.000000
n -t 29.000000 -s 9 -x 82.099593 -y 9.449318 -U 0.000000 -V 0.000000 -T 0.000000
n -t 30.000000 -s 2 -x 40.171070 -y 19.388546 -U 0.000000 -V 0.000000 -T 0.000000
n -t 30.000000 -s 1 -x 18.402782 -y 25.364491 -U 0.000000 -V 0.000000 -T 0.000000
n -t 30.000000 -s 0 -x 38.917158 -y 39.068441 -U 0.000000 -V 0.000000 -T 0.000000
n -t 30.000000 -s 4 -x 63.101642 -y 46.414916 -U 0.000000 -V 0.000000 -T 0.000000
n -t 30.000000 -s 8 -x 71.592562 -y 7.330560 -U 0.000000 -V 0.000000 -T 0.000000
n -t 30.000000 -s 7 -x 66.605798 -y 44.442449 -U 0.000000 -V 0.000000 -T 0.000000
n -t 30.000000 -s 9 -x 82.099593 -y 9.449318 -U 0.000000 -V 0.000000 -T 0.000000
n -t 30.000000 -s 2 -x 40.171070 -y 19.388546 -U -0.994725 -V -0.102575 -T 5.813965
n -t 30.000000 -s 1 -x 18.402782 -y 25.364491 -U 0.269984 -V -0.962865 -T 6.825789
n -t 30.000000 -s 0 -x 38.917158 -y 39.068441 -U -0.476840 -V -0.878990 -T 39.156760
n -t 30.000000 -s 4 -x 63.101642 -y 46.414916 -U -0.953920 -V -0.300061 -T 44.926204
n -t 30.000000 -s 8 -x 71.592562 -y 7.330560 -U -0.997415 -V -0.071861 -T 37.301228
n -t 30.000000 -s 7 -x 66.605798 -y 44.442449 -U -0.941726 -V -0.336380 -T 34.211670
n -t 30.000000 -s 1 -x 18.402782 -y 25.364491 -U 0.804876 -V -0.593442 -T 11.074894
n -t 30.000000 -s 2 -x 40.171070 -y 19.388546 -U -0.994725 -V -0.102575 -T 0.813965
n -t 30.000000 -s 1 -x 18.402782 -y 25.364491 -U 0.000000 -V 0.000000 -T 0.000000
n -t 30.000000 -s 0 -x 38.917158 -y 39.068441 -U 0.000000 -V 0.000000 -T 0.000000
n -t 30.000000 -s 4 -x 63.101642 -y 46.414916 -U 0.000000 -V 0.000000 -T 0.000000
n -t 30.000000 -s 8 -x 71.592562 -y 7.330560 -U 0.000000 -V 0.000000 -T 0.000000
n -t 30.000000 -s 7 -x 66.605798 -y 44.442449 -U 0.000000 -V 0.000000 -T 0.000000
n -t 31.000000 -s 1 -x 18.402782 -y 25.364491 -U 0.796750 -V -0.604308 -T 11.187847
n -t 31.000000 -s 2 -x 39.361398 -y 19.305053 -U -0.992700 -V -0.120610 -T 0.816037
n -t 31.000000 -s 1 -x 18.402782 -y 25.364491 -U 0.000000 -V 0.000000 -T 0.000000
n -t 31.000000 -s 0 -x 38.917158 -y 39.068441 -U 0.000000 -V 0.000000 -T 0.000000
n -t 31.000000 -s 4 -x 63.101642 -y 46.414916 -U 0.000000 -V 0.000000 -T 0.000000
n -t 31.000000 -s 8 -x 71.592562 -y 7.330560 -U 0.000000 -V 0.000000 -T 0.000000
n -t 31.000000 -s 7 -x 66.605798 -y 44.442449 -U 0.000000 -V 0.000000 -T 0.000000
n -t 32.000000 -s 1 -x 18.402782 -y 25.364491 -U 0.788646 -V -0.614848 -T 11.302818
n -t 32.000000 -s 2 -x 38.551319 -y 19.206631 -U -0.990698 -V -0.136079 -T 0.817568
n -t 32.000000 -s 1 -x 18.402782 -y 25.364491 -U 0.000000 -V 0.000000 -T 0.000000
n -t 32.000000 -s 0 -x 38.917158 -y 39.068441 -U 0.000000 -V 0.000000 -T 0.000000
n -t 32.000000 -s 4 -x 63.101642 -y 46.414916 -U 0.000000 -V 0.000000 -T 0.000000
n -t 32.000000 -s 8 -x 71.592562 -y 7.330560 -U 0.000000 -V 0.000000 -T 0.000000
n -t 32.000000 -s 7 -x 66.605798 -y 44.442449 -U 0.000000 -V 0.000000 -T 0.000000