n -t * -s 0  -x 90.455479999999994 -y 98.626149999999996 -Z 0 -z 1  -v circle -c black
n -t * -s 1  -x 56.64349 -y 72.09657 -Z 0 -z 1  -v circle -c black
n -t * -s 2  -x 49.216230000000003 -y 39.999099999999999 -Z 0 -z 1  -v circle -c black
n -t * -s 3  -x 90.916460000000001 -y 80.829750000000004 -Z 0 -z 1  -v circle -c black
n -t * -s 4  -x 13.60582 -y 38.84281 -Z 0 -z 1  -v circle -c black
n -t * -s 5  -x 46.932259999999999 -y 59.372619999999998 -Z 0 -z 1  -v circle -c black
n -t * -s 6  -x 65.394450000000006 -y 67.830110000000005 -Z 0 -z 1  -v circle -c black
n -t * -s 7  -x 35.375030000000002 -y 3.62968 -Z 0 -z 1  -v circle -c black
n -t * -s 8  -x 67.780550000000005 -y 63.20843 -Z 0 -z 1  -v circle -c black
n -t * -s 9  -x 62.302030000000002 -y 98.302570000000003 -Z 0 -z 1  -v circle -c black
n -t * -s 10  -x 29.12463 -y 47.164250000000003 -Z 0 -z 1  -v circle -c black
n -t * -s 11  -x 40.384320000000002 -y 96.788979999999995 -Z 0 -z 1  -v circle -c black
n -t * -s 12  -x 96.032799999999995 -y 1.7076579999999999 -Z 0 -z 1  -v circle -c black
n -t * -s 13  -x 27.05555 -y 3.6508850000000002 -Z 0 -z 1  -v circle -c black
n -t * -s 14  -x 74.412959999999998 -y 22.275700000000001 -Z 0 -z 1  -v circle -c black
n -t * -s 15  -x 59.757199999999997 -y 68.688490000000002 -Z 0 -z 1  -v circle -c black
n -t * -s 16  -x 46.299390000000002 -y 10.416829999999999 -Z 0 -z 1  -v circle -c black
n -t * -s 17  -x 98.785690000000002 -y 21.069400000000002 -Z 0 -z 1  -v circle -c black
n -t * -s 18  -x 31.108250000000002 -y 51.697929999999999 -Z 0 -z 1  -v circle -c black
n -t * -s 19  -x 0.32482070000000002 -y 78.241219999999998 -Z 0 -z 1  -v circle -c black
n -t * -s 20  -x 59.271790000000003 -y 26.840029999999999 -Z 0 -z 2  -v circle -c black
n -t * -s 21  -x 31.252040000000001 -y 52.483580000000003 -Z 0 -z 2  -v circle -c black
n -t * -s 22  -x 76.311049999999994 -y 53.997540000000001 -Z 0 -z 2  -v circle -c black
V -t * -v 1.0a5 -a 0
W -t * -x 100 -y 100
A -t * -n 1 -p 0 -o 0x7fffffff -c 30 -a 1
A -t * -h 1 -m 1073741823 -s 0
n -t 0 -s 20 -S COLOR -c red -o black -i red -I black
n -t 0 -s 21 -S COLOR -c red -o black -i red -I black
n -t 0 -s 22 -S COLOR -c red -o black -i red -I black
n -t 0.000000 -s 20 -x 59.271790 -y 26.840030 -U -1.052282 -V -0.375801 -T 47.165896
n -t 0.000000 -s 21 -x 31.252040 -y 52.483580 -U 2.450198 -V -1.694028 -T 27.043080
n -t 0.000000 -s 22 -x 76.311050 -y 53.997540 -U -0.777300 -V 1.030767 -T 3.425780
n -t 0.000000 -s 18 -x 31.108250 -y 51.697930 -U 0.180030 -V 0.983661 -T 0.798700
n -t 0.000000 -s 10 -x 29.124630 -y 47.164250 -U 0.371342 -V 0.928496 -T 5.728974
n -t 0.000000 -s 8 -x 67.780550 -y 63.208430 -U 0.679489 -V -0.733685 -T 12.554279
n -t 0.000000 -s 14 -x 74.412960 -y 22.275700 -U -0.957443 -V 0.288623 -T 15.814175
n -t 0.000000 -s 2 -x 49.216230 -y 39.999100 -U 0.607174 -V -0.794569 -T 16.561262
n -t 0.000000 -s 5 -x 46.932260 -y 59.372620 -U -0.915536 -V -0.402237 -T 17.126826
n -t 0.000000 -s 6 -x 65.394450 -y 67.830110 -U 0.619510 -V -0.784989 -T 17.621355
n -t 0.000000 -s 16 -x 46.299390 -y 10.416830 -U 0.619842 -V 0.784727 -T 20.928561
n -t 0.000000 -s 15 -x 59.757200 -y 68.688490 -U 0.747938 -V -0.663768 -T 22.132645
n -t 0.000000 -s 4 -x 13.605820 -y 38.842810 -U 0.791175 -V 0.611589 -T 22.303804
n -t 0.000000 -s 1 -x 56.643490 -y 72.096570 -U 0.735840 -V -0.677155 -T 26.728034
n -t 0.000000 -s 3 -x 90.916460 -y 80.829750 -U -0.478087 -V -0.878313 -T 30.549722
n -t 0.000000 -s 7 -x 35.375030 -y 3.629680 -U 0.717334 -V 0.696729 -T 33.313293
n -t 0.000000 -s 13 -x 27.055550 -y 3.650885 -U 0.811613 -V 0.584196 -T 39.694112
n -t 0.000000 -s 17 -x 98.785690 -y 21.069400 -U -0.563741 -V 0.825951 -T 39.866927
n -t 0.000000 -s 19 -x 0.324821 -y 78.241220 -U 0.768405 -V -0.639964 -T 40.248589
n -t 0.000000 -s 14 -x 74.412960 -y 22.275700 -U -0.957443 -V 0.288623 -T 10.814175
n -t 0.000000 -s 10 -x 29.124630 -y 47.164250 -U 0.000000 -V 0.000000 -T 0.000000
n -t 0.000000 -s 5 -x 46.932260 -y 59.372620 -U 0.000000 -V 0.000000 -T 0.000000
n -t 0.000000 -s 4 -x 13.605820 -y 38.842810 -U 0.000000 -V 0.000000 -T 0.000000
n -t 0.000000 -s 19 -x 0.324821 -y 78.241220 -U 0.000000 -V 0.000000 -T 0.000000
n -t 0.000000 -s 8 -x 67.780550 -y 63.208430 -U 0.679489 -V -0.733685 -T 7.554279
n -t 1.000000 -s 14 -x 73.455517 -y 22.564323 -U 0.000000 -V 0.000000 -T 0.000000
n -t 1.000000 -s 2 -x 49.823404 -y 39.204531 -U 0.000000 -V 0.000000 -T 0.000000
n -t 1.000000 -s 16 -x 46.919232 -y 11.201557 -U 0.000000 -V 0.000000 -T 0.000000
n -t 1.000000 -s 7 -x 36.092364 -y 4.326409 -U 0.000000 -V 0.000000 -T 0.000000
n -t 1.000000 -s 13 -x 27.867163 -y 4.235081 -U 0.000000 -V 0.000000 -T 0.000000
n -t 1.000000 -s 18 -x 31.252040 -y 52.483580 -U 0.000000 -V 0.000000 -T 0.000000
n -t 1.000000 -s 10 -x 29.124630 -y 47.164250 -U 0.000000 -V 0.000000 -T 0.000000
n -t 1.000000 -s 5 -x 46.932260 -y 59.372620 -U 0.000000 -V 0.000000 -T 0.000000
n -t 1.000000 -s 4 -x 13.605820 -y 38.842810 -U 0.000000 -V 0.000000 -T 0.000000
n -t 1.000000 -s 19 -x 0.324821 -y 78.241220 -U 0.000000 -V 0.000000 -T 0.000000
n -t 1.000000 -s 8 -x 68.460039 -y 62.474745 -U 0.000000 -V 0.000000 -T 0.000000
n -t 1.000000 -s 6 -x 66.013960 -y 67.045121 -U 0.000000 -V 0.000000 -T 0.000000
n -t 1.000000 -s 15 -x 60.505138 -y 68.024722 -U 0.000000 -V 0.000000 -T 0.000000
n -t 1.000000 -s 1 -x 57.379330 -y 71.419415 -U 0.000000 -V 0.000000 -T 0.000000
n -t 1.000000 -s 3 -x 90.438373 -y 79.951437 -U 0.000000 -V 0.000000 -T 0.000000
n -t 1.000000 -s 17 -x 98.221949 -y 21.895351 -U 0.000000 -V 0.000000 -T 0.000000
n -t 1.000000 -s 18 -x 31.252040 -y 52.483580 -U 0.822548 -V -0.568696 -T 2.650828
n -t 1.000000 -s 10 -x 29.124630 -y 47.164250 -U 0.748908 -V 0.662674 -T 5.752167
n -t 1.000000 -s 8 -x 68.460039 -y 62.474745 -U 0.688729 -V -0.725019 -T 10.270677
n -t 1.000000 -s 2 -x 49.823404 -y 39.204531 -U 0.550272 -V -0.834986 -T 15.258108
n -t 1.000000 -s 6 -x 66.013960 -y 67.045121 -U 0.620963 -V -0.783840 -T 15.330696
n -t 1.000000 -s 14 -x 73.455517 -y 22.564323 -U -0.968767 -V 0.247972 -T 15.727214
n -t 1.000000 -s 5 -x 46.932260 -y 59.372620 -U -0.849150 -V -0.528152 -T 15.898001
n -t 1.000000 -s 16 -x 46.919232 -y 11.201557 -U 0.595044 -V 0.803693 -T 18.990666
n -t 1.000000 -s 15 -x 60.505138 -y 68.024722 -U 0.756396 -V -0.654114 -T 19.868718
n -t 1.000000 -s 4 -x 13.605820 -y 38.842810 -U 0.852957 -V 0.521981 -T 23.244612
n -t 1.000000 -s 1 -x 57.379330 -y 71.419415 -U 0.742233 -V -0.670141 -T 24.459178
n -t 1.000000 -s 3 -x 90.438373 -y 79.951437 -U -0.513248 -V -0.858240 -T 29.039805
n -t 1.000000 -s 7 -x 36.092364 -y 4.326409 -U 0.706936 -V 0.707277 -T 31.300056
n -t 1.000000 -s 13 -x 27.867163 -y 4.235081 -U 0.806775 -V 0.590858 -T 37.621800
n -t 1.000000 -s 17 -x 98.221949 -y 21.895351 -U -0.564994 -V 0.825095 -T 40.156532
n -t 1.000000 -s 19 -x 0.324821 -y 78.241220 -U 0.771930 -V -0.635708 -T 42.889454
n -t 1.000000 -s 2 -x 49.823404 -y 39.204531 -U 0.550272 -V -0.834986 -T 10.258108
n -t 1.000000 -s 10 -x 29.124630 -y 47.164250 -U 0.000000 -V 0.000000 -T 0.000000
n -t 1.000000 -s 5 -x 46.932260 -y 59.372620 -U 0.000000 -V 0.000000 -T 0.000000
n -t 1.000000 -s 4 -x 13.605820 -y 38.842810 -U 0.000000 -V 0.000000 -T 0.000000
n -t 1.000000 -s 19 -x 0.324821 -y 78.241220 -U 0.000000 -V 0.000000 -T 0.000000
n -t 1.000000 -s 8 -x 68.460039 -y 62.474745 -U 0.688729 -V -0.725019 -T 5.270677
n -t 2.000000 -s 2 -x 50.373675 -y 38.369545 -U 0.000000 -V 0.000000 -T 0.000000
n -t 2.000000 -s 14 -x 72.486750 -y 22.812295 -U 0.000000 -V 0.000000 -T 0.000000
n -t 2.000000 -s 16 -x 47.514276 -y 12.005250 -U 0.000000 -V 0.000000 -T 0.000000
n -t 2.000000 -s 7 -x 36.799300 -y 5.033687 -U 0.000000 -V 0.000000 -T 0.000000
n -t 2.000000 -s 13 -x 28.673938 -y 4.825939 -U 0.000000 -V 0.000000 -T 0.000000
n -t 2.000000 -s 18 -x 32.074588 -y 51.914884 -U 0.000000 -V 0.000000 -T 0.000000
n -t 2.000000 -s 10 -x 29.124630 -y 47.164250 -U 0.000000 -V 0.000000 -T 0.000000
n -t 2.000000 -s 5 -x 46.932260 -y 59.372620 -U 0.000000 -V 0.000000 -T 0.000000
n -t 2.000000 -s 4 -x 13.605820 -y 38.842810 -U 0.000000 -V 0.000000 -T 0.000000
n -t 2.000000 -s 19 -x 0.324821 -y 78.241220 -U 0.000000 -V 0.000000 -T 0.000000
n -t 2.000000 -s 8 -x 69.148768 -y 61.749726 -U 0.000000 -V 0.000000 -T 0.000000
n -t 2.000000 -s 6 -x 66.634922 -y 66.261281 -U 0.000000 -V 0.000000 -T 0.000000
n -t 2.000000 -s 15 -x 61.261534 -y 67.370607 -U 0.000000 -V 0.000000 -T 0.000000
n -t 2.000000 -s 1 -x 58.121564 -y 70.749273 -U 0.000000 -V 0.000000 -T 0.000000
n -t 2.000000 -s 3 -x 89.925125 -y 79.093197 -U 0.000000 -V 0.000000 -T 0.000000
n -t 2.000000 -s 17 -x 97.656955 -y 22.720446 -U 0.000000 -V 0.000000 -T 0.000000
n -t 2.000000 -s 18 -x 32.074588 -y 51.914884 -U 0.822548 -V -0.568696 -T 4.124388
n -t 2.000000 -s 10 -x 29.124630 -y 47.164250 -U 0.935029 -V 0.354570 -T 6.783169
n -t 2.000000 -s 8 -x 69.148768 -y 61.749726 -U 0.701895 -V -0.712280 -T 7.989344
n -t 2.000000 -s 6 -x 66.634922 -y 66.261281 -U 0.622812 -V -0.782372 -T 13.040101
n -t 2.000000 -s 2 -x 50.373675 -y 38.369545 -U 0.484047 -V -0.875042 -T 14.034891
n -t 2.000000 -s 5 -x 46.932260 -y 59.372620 -U -0.760043 -V -0.649873 -T 15.084893
n -t 2.000000 -s 14 -x 72.486750 -y 22.812295 -U -0.977889 -V 0.209125 -T 15.665914
n -t 2.000000 -s 16 -x 47.514276 -y 12.005250 -U 0.565366 -V 0.824840 -T 17.073820
n -t 2.000000 -s 15 -x 61.261534 -y 67.370607 -U 0.766381 -V -0.642386 -T 17.608621
n -t 2.000000 -s 1 -x 58.121564 -y 70.749273 -U 0.749561 -V -0.661935 -T 22.192823
n -t 2.000000 -s 4 -x 13.605820 -y 38.842810 -U 0.897754 -V 0.440496 -T 24.351059
n -t 2.000000 -s 3 -x 89.925125 -y 79.093197 -U -0.549987 -V -0.835173 -T 27.580058
n -t 2.000000 -s 7 -x 36.799300 -y 5.033687 -U 0.695287 -V 0.718732 -T 29.294274
n -t 2.000000 -s 13 -x 28.673938 -y 4.825939 -U 0.801449 -V 0.598063 -T 35.552227
n -t 2.000000 -s 17 -x 97.656955 -y 22.720446 -U -0.566196 -V 0.824270 -T 40.446226
n -t 2.000000 -s 19 -x 0.324821 -y 78.241220 -U 0.774831 -V -0.632169 -T 45.354767
n -t 2.000000 -s 2 -x 50.373675 -y 38.369545 -U 0.484047 -V -0.875042 -T 9.034891
n -t 2.000000 -s 10 -x 29.124630 -y 47.164250 -U 0.000000 -V 0.000000 -T 0.000000
n -t 2.000000 -s 5 -x 46.932260 -y 59.372620 -U 0.000000 -V 0.000000 -T 0.000000
n -t 2.000000 -s 4 -x 13.605820 -y 38.842810 -U 0.000000 -V 0.000000 -T 0.000000
n -t 2.000000 -s 19 -x 0.324821 -y 78.241220 -U 0.000000 -V 0.000000 -T 0.000000
n -t 2.000000 -s 8 -x 69.148768 -y 61.749726 -U 0.701895 -V -0.712280 -T 2.989344
n -t 2.000000 -s 6 -x 66.634922 -y 66.261281 -U 0.000000 -V 0.000000 -T 0.000000
n -t 2.000000 -s 15 -x 61.261534 -y 67.370607 -U 0.000000 -V 0.000000 -T 0.000000
n -t 2.000000 -s 1 -x 58.121564 -y 70.749273 -U 0.000000 -V 0.000000 -T 0.000000
n -t 2.000000 -s 3 -x 89.925125 -y 79.093197 -U 0.000000 -V 0.000000 -T 0.000000
n -t 2.000000 -s 17 -x 97.656955 -y 22.720446 -U 0.000000 -V 0.000000 -T 0.000000
n -t 3.000000 -s 2 -x 50.857722 -y 37.494503 -U 0.000000 -V 0.000000 -T 0.000000
n -t 3.000000 -s 14 -x 71.508861 -y 23.021419 -U 0.000000 -V 0.000000 -T 0.000000
n -t 3.000000 -s 16 -x 48.079641 -y 12.830090 -U 0.000000 -V 0.000000 -T 0.000000
n -t 3.000000 -s 7 -x 37.494587 -y 5.752419 -U 0.000000 -V 0.000000 -T 0.000000
n -t 3.000000 -s 13 -x 29.475387 -y 5.424003 -U 0.000000 -V 0.000000 -T 0.000000
n -t 3.000000 -s 18 -x 32.897135 -y 51.346187 -U 0.000000 -V 0.000000 -T 0.000000
n -t 3.000000 -s 10 -x 29.124630 -y 47.164250 -U 0.000000 -V 0.000000 -T 0.000000
n -t 3.000000 -s 5 -x 46.932260 -y 59.372620 -U 0.000000 -V 0.000000 -T 0.000000
n -t 3.000000 -s 4 -x 13.605820 -y 38.842810 -U 0.000000 -V 0.000000 -T 0.000000
n -t 3.000000 -s 19 -x 0.324821 -y 78.241220 -U 0.000000 -V 0.000000 -T 0.000000
n -t 3.000000 -s 8 -x 69.850663 -y 61.037445 -U 0.000000 -V 0.000000 -T 0.000000
n -t 3.000000 -s 6 -x 66.634922 -y 66.261281 -U 0.000000 -V 0.000000 -T 0.000000
n -t 3.000000 -s 15 -x 61.261534 -y 67.370607 -U 0.000000 -V 0.000000 -T 0.000000
n -t 3.000000 -s 1 -x 58.121564 -y 70.749273 -U 0.000000 -V 0.000000 -T 0.000000
n -t 3.000000 -s 3 -x 89.925125 -y 79.093197 -U 0.000000 -V 0.000000 -T 0.000000
n -t 3.000000 -s 17 -x 97.656955 -y 22.720446 -U 0.000000 -V 0.000000 -T 0.000000
n -t 3.000000 -s 18 -x 32.897135 -y 51.346187 -U 0.822548 -V -0.568696 -T 3.957584
n -t 3.000000 -s 8 -x 69.850663 -y 61.037445 -U 0.701895 -V -0.712280 -T 6.989344
n -t 3.000000 -s 10 -x 29.124630 -y 47.164250 -U 0.964254 -V 0.264981 -T 7.288338
n -t 3.000000 -s 2 -x 50.857722 -y 37.494503 -U 0.407486 -V -0.913211 -T 12.901589
n -t 3.000000 -s 6 -x 66.634922 -y 66.261281 -U 0.622812 -V -0.782372 -T 13.040101
n -t 3.000000 -s 5 -x 46.932260 -y 59.372620 -U -0.723782 -V -0.690028 -T 14.893734
n -t 3.000000 -s 16 -x 48.079641 -y 12.830090 -U 0.529228 -V 0.848480 -T 15.183076
n -t 3.000000 -s 14 -x 71.508861 -y 23.021419 -U -0.985060 -V 0.172211 -T 15.627389
n -t 3.000000 -s 15 -x 61.261534 -y 67.370607 -U 0.766381 -V -0.642386 -T 17.608621
n -t 3.000000 -s 1 -x 58.121564 -y 70.749273 -U 0.749561 -V -0.661935 -T 22.192823
n -t 3.000000 -s 4 -x 13.605820 -y 38.842810 -U 0.910302 -V 0.413945 -T 24.768287
n -t 3.000000 -s 7 -x 37.494587 -y 5.752419 -U 0.682139 -V 0.731223 -T 27.297024
n -t 3.000000 -s 3 -x 89.925125 -y 79.093197 -U -0.549987 -V -0.835173 -T 27.580058
n -t 3.000000 -s 13 -x 29.475387 -y 5.424003 -U 0.795549 -V 0.605889 -T 33.485731
n -t 3.000000 -s 17 -x 97.656955 -y 22.720446 -U -0.566196 -V 0.824270 -T 40.446226
n -t 3.000000 -s 19 -x 0.324821 -y 78.241220 -U 0.775735 -V -0.631059 -T 46.185383
n -t 3.000000 -s 2 -x 50.857722 -y 37.494503 -U 0.407486 -V -0.913211 -T 7.901589
n -t 3.000000 -s 18 -x 32.897135 -y 51.346187 -U 0.822548 -V -0.568696 -T 1.936376
n -t 3.000000 -s 10 -x 29.124630 -y 47.164250 -U 0.000000 -V 0.000000 -T 0.000000
n -t 3.000000 -s 5 -x 46.932260 -y 59.372620 -U 0.000000 -V 0.000000 -T 0.000000
n -t 3.000000 -s 4 -x 13.605820 -y 38.842810 -U 0.000000 -V 0.000000 -T 0.000000
n -t 3.000000 -s 19 -x 0.324821 -y 78.241220 -U 0.000000 -V 0.000000 -T 0.000000
n -t 3.000000 -s 8 -x 69.850663 -y 61.037445 -U 0.722763 -V -0.691096 -T 0.712091
n -t 3.000000 -s 6 -x 66.634922 -y 66.261281 -U 0.000000 -V 0.000000 -T 0.000000
n -t 3.000000 -s 15 -x 61.261534 -y 67.370607 -U 0.000000 -V 0.000000 -T 0.000000
n -t 3.000000 -s 1 -x 58.121564 -y 70.749273 -U 0.000000 -V 0.000000 -T 0.000000
n -t 3.000000 -s 3 -x 89.925125 -y 79.093197 -U 0.000000 -V 0.000000 -T 0.000000
n -t 3.000000 -s 17 -x 97.656955 -y 22.720446 -U 0.000000 -V 0.000000 -T 0.000000
n -t 4.000000 -s 2 -x 51.265209 -y 36.581292 -U 0.000000 -V 0.000000 -T 0.000000
n -t 4.000000 -s 16 -x 48.608869 -y 13.678570 -U 0.000000 -V 0.000000 -T 0.000000
n -t 4.000000 -s 14 -x 70.523801 -y 23.193630 -U 0.000000 -V 0.000000 -T 0.000000
n -t 4.000000 -s 7 -x 38.176726 -y 6.483642 -U 0.000000 -V 0.000000 -T 0.000000
n -t 4.000000 -s 13 -x 30.270936 -y 6.029891 -U 0.000000 -V 0.000000 -T 0.000000
n -t 4.000000 -s 18 -x 33.719683 -y 50.777491 -U 0.000000 -V 0.000000 -T 0.000000
n -t 4.000000 -s 10 -x 29.124630 -y 47.164250 -U 0.000000 -V 0.000000 -T 0.000000
n -t 4.000000 -s 5 -x 46.932260 -y 59.372620 -U 0.000000 -V 0.000000 -T 0.000000
n -t 4.000000 -s 4 -x 13.605820 -y 38.842810 -U 0.000000 -V 0.000000 -T 0.000000
n -t 4.000000 -s 19 -x 0.324821 -y 78.241220 -U 0.000000 -V 0.000000 -T 0.000000
n -t 4.000000 -s 8 -x 70.365336 -y 60.545322 -U 0.000000 -V 0.000000 -T 0.000000
n -t 4.000000 -s 6 -x 66.634922 -y 66.261281 -U 0.000000 -V 0.000000 -T 0.000000
n -t 4.000000 -s 15 -x 61.261534 -y 67.370607 -U 0.000000 -V 0.000000 -T 0.000000
n -t 4.000000 -s 1 -x 58.121564 -y 70.749273 -U 0.000000 -V 0.000000 -T 0.000000
n -t 4.000000 -s 3 -x 89.925125 -y 79.093197 -U 0.000000 -V 0.000000 -T 0.000000
n -t 4.000000 -s 17 -x 97.656955 -y 22.720446 -U 0.000000 -V 0.000000 -T 0.000000
n -t 4.000000 -s 8 -x 70.365336 -y 60.545322 -U 0.722763 -V -0.691096 -T 5.000000
n -t 4.000000 -s 18 -x 33.719683 -y 50.777491 -U 0.822548 -V -0.568696 -T 5.936376
n -t 4.000000 -s 10 -x 29.124630 -y 47.164250 -U 0.999687 -V 0.025023 -T 9.480973
n -t 4.000000 -s 6 -x 66.634922 -y 66.261281 -U 0.625062 -V -0.780575 -T 11.749595
n -t 4.000000 -s 2 -x 51.265209 -y 36.581292 -U 0.319964 -V -0.947430 -T 11.868390
n -t 4.000000 -s 16 -x 48.608869 -y 13.678570 -U 0.484323 -V 0.874890 -T 13.325402
n -t 4.000000 -s 5 -x 46.932260 -y 59.372620 -U -0.571152 -V -0.820845 -T 14.583912
n -t 4.000000 -s 14 -x 70.523801 -y 23.193630 -U -0.990529 -V 0.137305 -T 15.608976
n -t 4.000000 -s 15 -x 61.261534 -y 67.370607 -U 0.777677 -V -0.628664 -T 16.353345
n -t 4.000000 -s 1 -x 58.121564 -y 70.749273 -U 0.757667 -V -0.652641 -T 20.929480
n -t 4.000000 -s 7 -x 38.176726 -y 6.483642 -U 0.667174 -V 0.744902 -T 25.309629
n -t 4.000000 -s 4 -x 13.605820 -y 38.842810 -U 0.946081 -V 0.323930 -T 26.421427
n -t 4.000000 -s 3 -x 89.925125 -y 79.093197 -U -0.586812 -V -0.809723 -T 27.173919
n -t 4.000000 -s 13 -x 30.270936 -y 6.029891 -U 0.788975 -V 0.614426 -T 31.422719
n -t 4.000000 -s 17 -x 97.656955 -y 22.720446 -U -0.567323 -V 0.823495 -T 41.736000
n -t 4.000000 -s 19 -x 0.324821 -y 78.241220 -U 0.778706 -V -0.627389 -T 49.155667
n -t 4.000000 -s 2 -x 51.265209 -y 36.581292 -U 0.319964 -V -0.947430 -T 6.868390
n -t 4.000000 -s 18 -x 33.719683 -y 50.777491 -U 0.822548 -V -0.568696 -T 3.915168
n -t 4.000000 -s 10 -x 29.124630 -y 47.164250 -U 0.000000 -V 0.000000 -T 0.000000
n -t 4.000000 -s 5 -x 46.932260 -y 59.372620 -U 0.000000 -V 0.000000 -T 0.000000
n -t 4.000000 -s 4 -x 13.605820 -y 38.842810 -U 0.000000 -V 0.000000 -T 0.000000
n -t 4.000000 -s 19 -x 0.324821 -y 78.241220 -U 0.000000 -V 0.000000 -T 0.000000
n -t 4.000000 -s 6 -x 66.634922 -y 66.261281 -U 0.000000 -V 0.000000 -T 0.000000
n -t 4.000000 -s 15 -x 61.261534 -y 67.370607 -U 0.000000 -V 0.000000 -T 0.000000
n -t 4.000000 -s 1 -x 58.121564 -y 70.749273 -U 0.000000 -V 0.000000 -T 0.000000
n -t 4.000000 -s 3 -x 89.925125 -y 79.093197 -U 0.000000 -V 0.000000 -T 0.000000
n -t 4.000000 -s 17 -x 97.656955 -y 22.720446 -U 0.000000 -V 0.000000 -T 0.000000
n -t 5.000000 -s 22 -x 73.648190 -y 57.528720 -U -2.725769 -V 0.775034 -T 16.356981
n -t 5.000000 -s 2 -x 51.585172 -y 35.633862 -U 0.000000 -V 0.000000 -T 0.000000
n -t 5.000000 -s 16 -x 49.093191 -y 14.553460 -U 0.000000 -V 0.000000 -T 0.000000
n -t 5.000000 -s 14 -x 69.533272 -y 23.330936 -U 0.000000 -V 0.000000 -T 0.000000
n -t 5.000000 -s 7 -x 38.843900 -y 7.228543 -U 0.000000 -V 0.000000 -T 0.000000
n -t 5.000000 -s 13 -x 31.059911 -y 6.644317 -U 0.000000 -V 0.000000 -T 0.000000
n -t 5.000000 -s 18 -x 34.542230 -y 50.208795 -U 0.000000 -V 0.000000 -T 0.000000
n -t 5.000000 -s 10 -x 29.124630 -y 47.164250 -U 0.000000 -V 0.000000 -T 0.000000
n -t 5.000000 -s 5 -x 46.932260 -y 59.372620 -U 0.000000 -V 0.000000 -T 0.000000
n -t 5.000000 -s 4 -x 13.605820 -y 38.842810 -U 0.000000 -V 0.000000 -T 0.000000
n -t 5.000000 -s 19 -x 0.324821 -y 78.241220 -U 0.000000 -V 0.000000 -T 0.000000
n -t 5.000000 -s 8 -x 71.088098 -y 59.854226 -U 0.000000 -V 0.000000 -T 0.000000
n -t 5.000000 -s 6 -x 66.634922 -y 66.261281 -U 0.000000 -V 0.000000 -T 0.000000
n -t 5.000000 -s 15 -x 61.261534 -y 67.370607 -U 0.000000 -V 0.000000 -T 0.000000
n -t 5.000000 -s 1 -x 58.121564 -y 70.749273 -U 0.000000 -V 0.000000 -T 0.000000
n -t 5.000000 -s 3 -x 89.925125 -y 79.093197 -U 0.000000 -V 0.000000 -T 0.000000
n -t 5.000000 -s 17 -x 97.656955 -y 22.720446 -U 0.000000 -V 0.000000 -T 0.000000
n -t 5.000000 -s 8 -x 71.088098 -y 59.854226 -U 0.740206 -V -0.672380 -T 3.458619
n -t 5.000000 -s 18 -x 34.542230 -y 50.208795 -U 0.822548 -V -0.568696 -T 7.915168
n -t 5.000000 -s 2 -x 51.585172 -y 35.633862 -U 0.221583 -V -0.975142 -T 10.944912
n -t 5.000000 -s 6 -x 66.634922 -y 66.261281 -U 0.626176 -V -0.779682 -T 11.200158
n -t 5.000000 -s 16 -x 49.093191 -y 14.553460 -U 0.427184 -V 0.904165 -T 11.510695
n -t 5.000000 -s 10 -x 29.124630 -y 47.164250 -U 0.992625 -V -0.121229 -T 12.016831
n -t 5.000000 -s 5 -x 46.932260 -y 59.372620 -U -0.395221 -V -0.918586 -T 14.876292
n -t 5.000000 -s 14 -x 69.533272 -y 23.330936 -U -0.994531 -V 0.104438 -T 15.608248
n -t 5.000000 -s 15 -x 61.261534 -y 67.370607 -U 0.782944 -V -0.622092 -T 15.820619
n -t 5.000000 -s 1 -x 58.121564 -y 70.749273 -U 0.761384 -V -0.648301 -T 20.392625
n -t 5.000000 -s 7 -x 38.843900 -y 7.228543 -U 0.649981 -V 0.759951 -T 23.333729
n -t 5.000000 -s 3 -x 89.925125 -y 79.093197 -U -0.602451 -V -0.798156 -T 27.017870
n -t 5.000000 -s 4 -x 13.605820 -y 38.842810 -U 0.970118 -V 0.242632 -T 28.292437
n -t 5.000000 -s 13 -x 31.059911 -y 6.644317 -U 0.781594 -V 0.623788 -T 29.363680
n -t 5.000000 -s 17 -x 97.656955 -y 22.720446 -U -0.567782 -V 0.823179 -T 42.285183
n -t 5.000000 -s 19 -x 0.324821 -y 78.241220 -U 0.781324 -V -0.624126 -T 52.126922
n -t 5.000000 -s 2 -x 51.585172 -y 35.633862 -U 0.221583 -V -0.975142 -T 5.944912
n -t 5.000000 -s 18 -x 34.542230 -y 50.208795 -U 0.822548 -V -0.568696 -T 5.893960
n -t 5.000000 -s 6 -x 66.634922 -y 66.261281 -U 0.000000 -V 0.000000 -T 0.000000
n -t 5.000000 -s 15 -x 61.261534 -y 67.370607 -U 0.000000 -V 0.000000 -T 0.000000
n -t 5.000000 -s 1 -x 58.121564 -y 70.749273 -U 0.000000 -V 0.000000 -T 0.000000
n -t 5.000000 -s 3 -x 89.925125 -y 79.093197 -U 0.000000 -V 0.000000 -T 0.000000
n -t 5.000000 -s 17 -x 97.656955 -y 22.720446 -U 0.000000 -V 0.000000 -T 0.000000
n -t 6.000000 -s 2 -x 51.806755 -y 34.658720 -U 0.000000 -V 0.000000 -T 0.000000
n -t 6.000000 -s 16 -x 49.520375 -y 15.457625 -U 0.000000 -V 0.000000 -T 0.000000
n -t 6.000000 -s 14 -x 68.538741 -y 23.435373 -U 0.000000 -V 0.000000 -T 0.000000
n -t 6.000000 -s 7 -x 39.493881 -y 7.988494 -U 0.000000 -V 0.000000 -T 0.000000
n -t 6.000000 -s 13 -x 31.841504 -y 7.268105 -U 0.000000 -V 0.000000 -T 0.000000
n -t 6.000000 -s 18 -x 35.364778 -y 49.640098 -U 0.000000 -V 0.000000 -T 0.000000
n -t 6.000000 -s 10 -x 30.117255 -y 47.043021 -U 0.000000 -V 0.000000 -T 0.000000
n -t 6.000000 -s 5 -x 46.537039 -y 58.454034 -U 0.000000 -V 0.000000 -T 0.000000
n -t 6.000000 -s 4 -x 14.575938 -y 39.085442 -U 0.000000 -V 0.000000 -T 0.000000
n -t 6.000000 -s 19 -x 1.106145 -y 77.617094 -U 0.000000 -V 0.000000 -T 0.000000
n -t 6.000000 -s 8 -x 71.828305 -y 59.181846 -U 0.000000 -V 0.000000 -T 0.000000
n -t 6.000000 -s 6 -x 66.634922 -y 66.261281 -U 0.000000 -V 0.000000 -T 0.000000
n -t 6.000000 -s 15 -x 61.261534 -y 67.370607 -U 0.000000 -V 0.000000 -T 0.000000
n -t 6.000000 -s 1 -x 58.121564 -y 70.749273 -U 0.000000 -V 0.000000 -T 0.000000
n -t 6.000000 -s 3 -x 89.925125 -y 79.093197 -U 0.000000 -V 0.000000 -T 0.000000
n -t 6.000000 -s 17 -x 97.656955 -y 22.720446 -U 0.000000 -V 0.000000 -T 0.000000
n -t 6.000000 -s 8 -x 71.828305 -y 59.181846 -U 0.740206 -V -0.672380 -T 2.458619
n -t 6.000000 -s 2 -x 51.806755 -y 34.658720 -U -0.607146 -V 0.794590 -T 9.641056
n -t 6.000000 -s 16 -x 49.520375 -y 15.457625 -U 0.352460 -V 0.935827 -T 9.753510
n -t 6.000000 -s 6 -x 66.634922 -y 66.261281 -U 0.626176 -V -0.779682 -T 11.200158
n -t 6.000000 -s 18 -x 35.364778 -y 49.640098 -U 0.822548 -V -0.568696 -T 12.872752
n -t 6.000000 -s 14 -x 68.538741 -y 23.435373 -U -0.997288 -V 0.073600 -T 15.623016
n -t 6.000000 -s 15 -x 61.261534 -y 67.370607 -U 0.782944 -V -0.622092 -T 15.820619
n -t 6.000000 -s 5 -x 46.537039 -y 58.454034 -U -0.036160 -V -0.999346 -T 16.145182
n -t 6.000000 -s 10 -x 30.117255 -y 47.043021 -U 0.958278 -V -0.285839 -T 16.525452
n -t 6.000000 -s 1 -x 58.121564 -y 70.749273 -U 0.761384 -V -0.648301 -T 20.392625
n -t 6.000000 -s 7 -x 39.493881 -y 7.988494 -U 0.630011 -V 0.776586 -T 21.371394
n -t 6.000000 -s 3 -x 89.925125 -y 79.093197 -U -0.602451 -V -0.798156 -T 27.017870
n -t 6.000000 -s 13 -x 31.841504 -y 7.268105 -U 0.773241 -V 0.634113 -T 27.309211
n -t 6.000000 -s 4 -x 14.575938 -y 39.085442 -U 0.994731 -V 0.102524 -T 31.543507
n -t 6.000000 -s 17 -x 97.656955 -y 22.720446 -U -0.567782 -V 0.823179 -T 42.285183
n -t 6.000000 -s 16 -x 49.520375 -y 15.457625 -U 0.352460 -V 0.935827 -T 4.753510
n -t 6.000000 -s 14 -x 68.538741 -y 23.435373 -U 0.000000 -V 0.000000 -T 0.000000
n -t 6.000000 -s 7 -x 39.493881 -y 7.988494 -U 0.000000 -V 0.000000 -T 0.000000
n -t 6.000000 -s 13 -x 31.841504 -y 7.268105 -U 0.000000 -V 0.000000 -T 0.000000
n -t 6.000000 -s 2 -x 51.806755 -y 34.658720 -U -0.607146 -V 0.794590 -T 4.641056
n -t 6.000000 -s 18 -x 35.364778 -y 49.640098 -U 0.000000 -V 0.000000 -T 0.000000
n -t 6.000000 -s 5 -x 46.537039 -y 58.454034 -U 0.000000 -V 0.000000 -T 0.000000
n -t 6.000000 -s 10 -x 30.117255 -y 47.043021 -U 0.000000 -V 0.000000 -T 0.000000
n -t 6.000000 -s 4 -x 14.575938 -y 39.085442 -U 0.000000 -V 0.000000 -T 0.000000
n -t 6.000000 -s 6 -x 66.634922 -y 66.261281 -U 0.000000 -V 0.000000 -T 0.000000
n -t 6.000000 -s 15 -x 61.261534 -y 67.370607 -U 0.000000 -V 0.000000 -T 0.000000
n -t 6.000000 -s 1 -x 58.121564 -y 70.749273 -U 0.000000 -V 0.000000 -T 0.000000
n -t 6.000000 -s 3 -x 89.925125 -y 79.093197 -U 0.000000 -V 0.000000 -T 0.000000
n -t 6.000000 -s 17 -x 97.656955 -y 22.720446 -U 0.000000 -V 0.000000 -T 0.000000
n -t 7.000000 -s 16 -x 49.872835 -y 16.393452 -U 0.251730 -V 0.967798 -T 3.076037
n -t 7.000000 -s 14 -x 68.538741 -y 23.435373 -U 0.000000 -V 0.000000 -T 0.000000
n -t 7.000000 -s 7 -x 39.493881 -y 7.988494 -U 0.000000 -V 0.000000 -T 0.000000
n -t 7.000000 -s 13 -x 31.841504 -y 7.268105 -U 0.000000 -V 0.000000 -T 0.000000
n -t 7.000000 -s 2 -x 51.199609 -y 35.453311 -U -0.475579 -V 0.879673 -T 0.879538
n -t 7.000000 -s 18 -x 35.364778 -y 49.640098 -U 0.000000 -V 0.000000 -T 0.000000
n -t 7.000000 -s 5 -x 46.537039 -y 58.454034 -U 0.000000 -V 0.000000 -T 0.000000
n -t 7.000000 -s 10 -x 30.117255 -y 47.043021 -U 0.000000 -V 0.000000 -T 0.000000
n -t 7.000000 -s 4 -x 14.575938 -y 39.085442 -U 0.000000 -V 0.000000 -T 0.000000
n -t 7.000000 -s 6 -x 66.634922 -y 66.261281 -U 0.000000 -V 0.000000 -T 0.000000
n -t 7.000000 -s 15 -x 61.261534 -y 67.370607 -U 0.000000 -V 0.000000 -T 0.000000
n -t 7.000000 -s 1 -x 58.121564 -y 70.749273 -U 0.000000 -V 0.000000 -T 0.000000
n -t 7.000000 -s 3 -x 89.925125 -y 79.093197 -U 0.000000 -V 0.000000 -T 0.000000
n -t 7.000000 -s 17 -x 97.656955 -y 22.720446 -U 0.000000 -V 0.000000 -T 0.000000
n -t 8.000000 -s 16 -x 50.124565 -y 17.361249 -U 0.111920 -V 0.993717 -T 1.513292
n -t 8.000000 -s 14 -x 68.538741 -y 23.435373 -U 0.000000 -V 0.000000 -T 0.000000
n -t 8.000000 -s 7 -x 39.493881 -y 7.988494 -U 0.000000 -V 0.000000 -T 0.000000
n -t 8.000000 -s 13 -x 31.841504 -y 7.268105 -U 0.000000 -V 0.000000 -T 0.000000
n -t 8.000000 -s 18 -x 35.364778 -y 49.640098 -U 0.000000 -V 0.000000 -T 0.000000
n -t 8.000000 -s 5 -x 46.537039 -y 58.454034 -U 0.000000 -V 0.000000 -T 0.000000
n -t 8.000000 -s 10 -x 30.117255 -y 47.043021 -U 0.000000 -V 0.000000 -T 0.000000
n -t 8.000000 -s 4 -x 14.575938 -y 39.085442 -U 0.000000 -V 0.000000 -T 0.000000
n -t 8.000000 -s 6 -x 66.634922 -y 66.261281 -U -0.178744 -V -0.983896 -T 1.512337
n -t 8.000000 -s 8 -x 73.308717 -y 57.837086 -U 0.000000 -V 0.000000 -T 0.000000
n -t 8.000000 -s 15 -x 61.261534 -y 67.370607 -U 0.000000 -V 0.000000 -T 0.000000
n -t 8.000000 -s 1 -x 58.121564 -y 70.749273 -U 0.000000 -V 0.000000 -T 0.000000
n -t 8.000000 -s 3 -x 89.925125 -y 79.093197 -U 0.000000 -V 0.000000 -T 0.000000
n -t 8.000000 -s 17 -x 97.656955 -y 22.720446 -U 0.000000 -V 0.000000 -T 0.000000
n -t 9.000000 -s 16 -x 50.236485 -y 18.354966 -U -0.084984 -V 0.996382 -T 0.121379
n -t 9.000000 -s 14 -x 68.538741 -y 23.435373 -U 0.000000 -V 0.000000 -T 0.000000
n -t 9.000000 -s 7 -x 39.493881 -y 7.988494 -U 0.000000 -V 0.000000 -T 0.000000
n -t 9.000000 -s 13 -x 31.841504 -y 7.268105 -U 0.000000 -V 0.000000 -T 0.000000
n -t 9.000000 -s 18 -x 35.364778 -y 49.640098 -U 0.000000 -V 0.000000 -T 0.000000
n -t 9.000000 -s 5 -x 46.537039 -y 58.454034 -U 0.000000 -V 0.000000 -T 0.000000
n -t 9.000000 -s 10 -x 30.117255 -y 47.043021 -U 0.000000 -V 0.000000 -T 0.000000
n -t 9.000000 -s 4 -x 14.575938 -y 39.085442 -U 0.000000 -V 0.000000 -T 0.000000
n -t 9.000000 -s 6 -x 66.456178 -y 65.277385 -U -0.623899 -V -0.781505 -T 0.948181
n -t 9.000000 -s 8 -x 73.308717 -y 57.837086 -U 0.000000 -V 0.000000 -T 0.000000
n -t 9.000000 -s 15 -x 61.261534 -y 67.370607 -U 0.000000 -V 0.000000 -T 0.000000
n -t 9.000000 -s 1 -x 58.121564 -y 70.749273 -U 0.000000 -V 0.000000 -T 0.000000
n -t 9.000000 -s 3 -x 89.925125 -y 79.093197 -U 0.000000 -V 0.000000 -T 0.000000
n -t 9.000000 -s 17 -x 97.656955 -y 22.720446 -U 0.000000 -V 0.000000 -T 0.000000
n -t 10.000000 -s 14 -x 68.538741 -y 23.435373 -U 0.000000 -V 0.000000 -T 0.000000
n -t 10.000000 -s 7 -x 39.493881 -y 7.988494 -U 0.000000 -V 0.000000 -T 0.000000
n -t 10.000000 -s 13 -x 31.841504 -y 7.268105 -U 0.000000 -V 0.000000 -T 0.000000
n -t 10.000000 -s 2 -x 50.781320 -y 36.227017 -U 0.990680 -V -0.136213 -T 0.019484
n -t 10.000000 -s 18 -x 35.364778 -y 49.640098 -U 0.000000 -V 0.000000 -T 0.000000
n -t 10.000000 -s 5 -x 46.537039 -y 58.454034 -U 0.000000 -V 0.000000 -T 0.000000
n -t 10.000000 -s 10 -x 30.117255 -y 47.043021 -U 0.000000 -V 0.000000 -T 0.000000
n -t 10.000000 -s 4 -x 14.575938 -y 39.085442 -U 0.000000 -V 0.000000 -T 0.000000
n -t 10.000000 -s 15 -x 61.261534 -y 67.370607 -U -0.203817 -V -0.979009 -T 1.094652
n -t 10.000000 -s 8 -x 73.308717 -y 57.837086 -U 0.000000 -V 0.000000 -T 0.000000
n -t 10.000000 -s 6 -x 65.864609 -y 64.536378 -U 0.000000 -V 0.000000 -T 0.000000
n -t 10.000000 -s 1 -x 58.121564 -y 70.749273 -U 0.000000 -V 0.000000 -T 0.000000
n -t 10.000000 -s 3 -x 89.925125 -y 79.093197 -U 0.000000 -V 0.000000 -T 0.000000
n -t 10.000000 -s 17 -x 97.656955 -y 22.720446 -U 0.000000 -V 0.000000 -T 0.000000
n -t 11.000000 -s 14 -x 68.538741 -y 23.435373 -U 0.000000 -V 0.000000 -T 0.000000
n -t 11.000000 -s 7 -x 39.493881 -y 7.988494 -U 0.000000 -V 0.000000 -T 0.000000
n -t 11.000000 -s 13 -x 31.841504 -y 7.268105 -U 0.000000 -V 0.000000 -T 0.000000
n -t 11.000000 -s 2 -x 50.800622 -y 36.224363 -U 0.952202 -V -0.305469 -T 2.775236