n -t * -s 0  -x 97.693039999999996 -y 25.79982 -Z 0 -z 1  -v circle -c black
n -t * -s 1  -x 59.618110000000001 -y 90.05744 -Z 0 -z 1  -v circle -c black
n -t * -s 2  -x 93.852890000000002 -y 48.156770000000002 -Z 0 -z 1  -v circle -c black
n -t * -s 3  -x 66.384349999999998 -y 69.859859999999998 -Z 0 -z 1  -v circle -c black
n -t * -s 4  -x 28.055399999999999 -y 32.755290000000002 -Z 0 -z 1  -v circle -c black
n -t * -s 5  -x 14.50896 -y 99.820179999999993 -Z 0 -z 1  -v circle -c black
n -t * -s 6  -x 5.3121650000000002 -y 42.343440000000001 -Z 0 -z 1  -v circle -c black
n -t * -s 7  -x 55.024920000000002 -y 73.665599999999998 -Z 0 -z 1  -v circle -c black
n -t * -s 8  -x 63.954439999999998 -y 67.127399999999994 -Z 0 -z 1  -v circle -c black
n -t * -s 9  -x 60.340560000000004 -y 77.516890000000004 -Z 0 -z 1  -v circle -c black
n -t * -s 10  -x 44.786009999999997 -y 23.86674 -Z 0 -z 1  -v circle -c black
n -t * -s 11  -x 65.696460000000002 -y 70.433970000000002 -Z 0 -z 1  -v circle -c black
n -t * -s 12  -x 69.433040000000005 -y 57.65793 -Z 0 -z 1  -v circle -c black
n -t * -s 13  -x 25.542310000000001 -y 53.052250000000001 -Z 0 -z 1  -v circle -c black
n -t * -s 14  -x 96.022490000000005 -y 66.364890000000003 -Z 0 -z 1  -v circle -c black
n -t * -s 15  -x 79.685500000000005 -y 62.534860000000002 -Z 0 -z 1  -v circle -c black
n -t * -s 16  -x 16.614979999999999 -y 90.976600000000005 -Z 0 -z 2  -v circle -c black
V -t * -v 1.0a5 -a 0
W -t * -x 100 -y 100
A -t * -n 1 -p 0 -o 0x7fffffff -c 30 -a 1
A -t * -h 1 -m 1073741823 -s 0
n -t 0 -s 16 -S COLOR -c red -o black -i red -I black
n -t 0.000000 -s 16 -x 16.614980 -y 90.976600 -U 0.523468 -V -0.685384 -T 124.457124
n -t 4.000000 -s 7 -x 55.024920 -y 73.665600 -U -0.999814 -V 0.019268 -T 22.178048
n -t 4.000000 -s 5 -x 14.508960 -y 99.820180 -U 0.845475 -V -0.534015 -T 21.694353
n -t 4.000000 -s 5 -x 14.508960 -y 99.820180 -U 0.340820 -V -0.940129 -T 7.322906
n -t 5.000000 -s 7 -x 54.025106 -y 73.684868 -U 0.000000 -V 0.000000 -T 0.000000
n -t 5.000000 -s 5 -x 14.849780 -y 98.880051 -U 0.000000 -V 0.000000 -T 0.000000
n -t 5.000000 -s 7 -x 54.025106 -y 73.684868 -U -0.999910 -V -0.013428 -T 20.652510
n -t 5.000000 -s 5 -x 14.849780 -y 98.880051 -U 0.853082 -V -0.521776 -T 21.714995
n -t 5.000000 -s 1 -x 59.618110 -y 90.057440 -U -0.935138 -V 0.354283 -T 28.063923
n -t 5.000000 -s 5 -x 14.849780 -y 98.880051 -U 0.360750 -V -0.932663 -T 7.148415
n -t 6.000000 -s 7 -x 53.025196 -y 73.671440 -U 0.000000 -V 0.000000 -T 0.000000
n -t 6.000000 -s 5 -x 15.210530 -y 97.947389 -U 0.000000 -V 0.000000 -T 0.000000
n -t 6.000000 -s 1 -x 58.682972 -y 90.411723 -U 0.000000 -V 0.000000 -T 0.000000
n -t 6.000000 -s 7 -x 53.025196 -y 73.671440 -U -0.998771 -V -0.049569 -T 19.150811
n -t 6.000000 -s 5 -x 15.210530 -y 97.947389 -U 0.860108 -V -0.510112 -T 21.726797
n -t 6.000000 -s 1 -x 58.682972 -y 90.411723 -U -0.932643 -V 0.360800 -T 26.575055
n -t 6.000000 -s 5 -x 15.210530 -y 97.947389 -U 0.379439 -V -0.925217 -T 6.978912
n -t 7.000000 -s 7 -x 52.026425 -y 73.621871 -U 0.000000 -V 0.000000 -T 0.000000
n -t 7.000000 -s 5 -x 15.589969 -y 97.022172 -U 0.000000 -V 0.000000 -T 0.000000
n -t 7.000000 -s 1 -x 57.750328 -y 90.772523 -U 0.000000 -V 0.000000 -T 0.000000
n -t 7.000000 -s 7 -x 52.026425 -y 73.621871 -U -0.995971 -V -0.089674 -T 17.676244
n -t 7.000000 -s 5 -x 15.589969 -y 97.022172 -U 0.866604 -V -0.498996 -T 21.730138
n -t 7.000000 -s 1 -x 57.750328 -y 90.772523 -U -0.929901 -V 0.367811 -T 25.087556
n -t 7.000000 -s 5 -x 15.589969 -y 97.022172 -U 0.396934 -V -0.917847 -T 6.813794
n -t 8.000000 -s 7 -x 51.030454 -y 73.532198 -U 0.000000 -V 0.000000 -T 0.000000
n -t 8.000000 -s 5 -x 15.986902 -y 96.104325 -U 0.000000 -V 0.000000 -T 0.000000
n -t 8.000000 -s 1 -x 56.820428 -y 91.140333 -U 0.000000 -V 0.000000 -T 0.000000
n -t 8.000000 -s 7 -x 51.030454 -y 73.532198 -U -0.990934 -V -0.134346 -T 16.232749
n -t 8.000000 -s 5 -x 15.986902 -y 96.104325 -U 0.872617 -V -0.488405 -T 21.725406
n -t 8.000000 -s 1 -x 56.820428 -y 91.140333 -U -0.932175 -V 0.362008 -T 23.467232
n -t 8.000000 -s 5 -x