n -t * -s 0  -x 65.157960000000003 -y 59.230559999999997 -Z 0 -z 1  -v circle -c black
n -t * -s 1  -x 79.448329999999999 -y 40.812280000000001 -Z 0 -z 1  -v circle -c black
n -t * -s 2  -x 35.895679999999999 -y 29.899360000000001 -Z 0 -z 1  -v circle -c black
n -t * -s 3  -x 0.57812379999999997 -y 58.902099999999997 -Z 0 -z 1  -v circle -c black
n -t * -s 4  -x 1.930693 -y 44.700389999999999 -Z 0 -z 1  -v circle -c black
n -t * -s 5  -x 3.0675880000000002 -y 40.661850000000001 -Z 0 -z 1  -v circle -c black
n -t * -s 6  -x 48.685369999999999 -y 12.024380000000001 -Z 0 -z 1  -v circle -c black
n -t * -s 7  -x 3.6591170000000002 -y 1.4036059999999999 -Z 0 -z 1  -v circle -c black
n -t * -s 8  -x 40.265039999999999 -y 97.084729999999993 -Z 0 -z 1  -v circle -c black
n -t * -s 9  -x 14.47603 -y 41.281660000000002 -Z 0 -z 1  -v circle -c black
n -t * -s 10  -x 34.595100000000002 -y 47.49803 -Z 0 -z 1  -v circle -c black
n -t * -s 11  -x 2.580692 -y 55.633209999999998 -Z 0 -z 1  -v circle -c black
n -t * -s 12  -x 21.967659999999999 -y 55.084850000000003 -Z 0 -z 1  -v circle -c black
n -t * -s 13  -x 32.561010000000003 -y 3.0018349999999998 -Z 0 -z 1  -v circle -c black
n -t * -s 14  -x 59.793860000000002 -y 69.118700000000004 -Z 0 -z 1  -v circle -c black
n -t * -s 15  -x 66.403580000000005 -y 39.732149999999997 -Z 0 -z 1  -v circle -c black
n -t * -s 16  -x 56.786650000000002 -y 0.043654070000000003 -Z 0 -z 1  -v circle -c black
n -t * -s 17  -x 56.95805 -y 76.782139999999998 -Z 0 -z 1  -v circle -c black
n -t * -s 18  -x 89.211020000000005 -y 45.20635 -Z 0 -z 1  -v circle -c black
n -t * -s 19  -x 58.834510000000002 -y 81.450019999999995 -Z 0 -z 1  -v circle -c black
n -t * -s 20  -x 31.774349999999998 -y 84.457660000000004 -Z 0 -z 2  -v circle -c black
V -t * -v 1.0a5 -a 0
W -t * -x 100 -y 100
A -t * -n 1 -p 0 -o 0x7fffffff -c 30 -a 1
A -t * -h 1 -m 1073741823 -s 0
n -t 0 -s 20 -S COLOR -c red -o black -i red -I black
n -t 0.000000 -s 20 -x 31.774350 -y 84.457660 -U -1.580600 -V -0.813498 -T 18.572976
n -t 0.000000 -s 17 -x 56.958050 -y 76.782140 -U -0.862903 -V -0.505369 -T 12.795830
n -t 0.000000 -s 8 -x 40.265040 -y 97.084730 -U -0.997767 -V 0.066792 -T 22.683479
n -t 0.000000 -s 19 -x 58.834510 -y 81.450020 -U -0.973951 -V 0.226760 -T 13.263531
n -t 0.000000 -s 14 -x 59.793860 -y 69.118700 -U -0.688911 -V 0.724846 -T 40.672201
n -t 0.000000 -s 0 -x 65.157960 -y 59.230560 -U -0.439105 -V 0.898436 -T 43.819756
n -t 0.000000 -s 8 -x 40.265040 -y 97.084730 -U -0.558001 -V -0.829840 -T 10.216265
n -t 1.000000 -s 17 -x 56.095147 -y 76.276771 -U 0.000000 -V 0.000000 -T 0.000000
n -t 1.000000 -s 8 -x 39.707039 -y 96.254890 -U 0.000000 -V 0.000000 -T 0.000000
n -t 1.000000 -s 19 -x 57.860559 -y 81.676780 -U 0.000000 -V 0.000000 -T 0.000000
n -t 1.000000 -s 14 -x 59.104949 -y 69.843546 -U 0.000000 -V 0.000000 -T 0.000000
n -t 1.000000 -s 0 -x 64.718855 -y 60.128996 -U 0.000000 -V 0.000000 -T 0.000000
n -t 1.000000 -s 17 -x 56.095147 -y 76.276771 -U -0.866487 -V -0.499200 -T 13.571197
n -t 1.000000 -s 8 -x 39.707039 -y 96.254890 -U -0.997911 -V 0.064603 -T 23.704943
n -t 1.000000 -s 19 -x 57.860559 -y 81.676780 -U -0.989585 -V 0.143951 -T 13.667019
n -t 1.000000 -s 14 -x 59.104949 -y 69.843546 -U -0.719047 -V 0.694961 -T 40.207647
n -t 1.000000 -s 0 -x 64.718855 -y 60.128996 -U -0.476017 -V 0.879436 -T 42.819830
n -t 1.000000 -s 8 -x 39.707039 -y 96.254890 -U -0.602236 -V -0.798318 -T 10.796617
n -t 2.000000 -s 17 -x 55.228660 -y 75.777571 -U 0.000000 -V 0.000000 -T 0.000000
n -t 2.000000 -s 8 -x 39.104803 -y 95.456571 -U 0.000000 -V 0.000000 -T 0.000000
n -t 2.000000 -s 19 -x 56.870975 -y 81.820731 -U 0.000000 -V 0.000000 -T 0.000000
n -t 2.000000 -s 14 -x 58.385902 -y 70.538507 -U 0.000000 -V 0.000000 -T 0.000000
n -t 2.000000 -s 0 -x 64.242838 -y 61.008432 -U 0.000000 -V 0.000000 -T 0.000000
n -t 2.000000 -s 17 -x 55.228660 -y 75.777571 -U -0.869400 -V -0.494109 -T 14.347111
n -t 2.000000 -s 8 -x 39.104803 -y 95.456571 -U 0.277750 -V -0.960653 -T 13.143041
n -t 2.000000 -s 19 -x 56.870975 -y 81.820731 -U -0.681641 -V 0.731687 -T 20.708401
n -t 2.000000 -s 8 -x 39.104803 -y 95.456571 -U -0.639108 -V -0.769117 -T 11.416099
n -t 3.000000 -s 17 -x 54.359260 -y 75.283461 -U 0.000000 -V 0.000000 -T 0.000000
n -t 3.000000 -s 8 -x 38.465696 -y 94.687454 -U 0.000000 -V 0.000000 -T 0.000000
n -t 3.000000 -s 19 -x 56.189334 -y 82.552418 -U 0.000000 -V 0.000000 -T 0.000000
n -t 3.000000 -s 17 -x 54.359260 -y 75.283461 -U -0.871798 -V -0.489865 -T 15.123421
n -t 3.000000 -s 8 -x 38.465696 -y 94.687454 -U 0.209081 -V -0.977898 -T 12.956650
n -t 3.000000 -s 8 -x 38.465696 -y 94.687454 -U -0.669932 -V -0.742423 -T 12.066136
n -t 4.000000 -s 17 -x 53.487462 -y 74.793597 -U 0.000000 -V 0.000000 -T 0.000000
n -t 4.000000 -s 8 -x 37.795764 -y 93.945031 -U 0.000000 -V 0.000000 -T 0.000000
n -t 4.000000 -s 3 -x 0.578124 -y 58.902100 -U 0.796042 -V 0.605241 -T 13.481303
n -t 4.000000 -s 12 -x 21.967660 -y 55.084850 -U 0.279342 -V 0.960192 -T 12.473221
n -t 4.000000 -s 17 -x 53.487462 -y 74.793597 -U -0.873796 -V -0.486293 -T 15.900022
n -t 4.000000 -s 8 -x 37.795764 -y 93.945031 -U 0.139755 -V -0.990186 -T 12.867644
n -t 4.000000 -s 19 -x 56.189334 -y 82.552418 -U -0.791982 -V 0.610544 -T 20.954070
n -t 4.000000 -s 8 -x 37.795764 -y 93.945031 -U -0.695813 -V -0.718223 -T 12.740125
n -t 5.000000 -s 3 -x 1.374166 -y 59.507341 -U 0.000000 -V 0.000000 -T 0.000000
n -t 5.000000 -s 12 -x 22.247002 -y 56.045042 -U 0.000000 -V 0.000000 -T 0.000000
n -t 5.000000 -s 17 -x 52.613666 -y 74.307304 -U 0.000000 -V 0.000000 -T 0.000000
n -t 5.000000 -s 8 -x 37.099951 -y 93.226809 -U 0.000000 -V 0.000000 -T 0.000000
n -t 5.000000 -s 19 -x 55.397352 -y 83.162963 -U 0.000000 -V 0.000000 -T 0.000000
n -t 5.000000 -s 3 -x 1.374166 -y 59.507341 -U 0.778288 -V 0.627908 -T 10.735166
n -t 5.000000 -s 12 -x 22.247002 -y 56.045042 -U 0.157223 -V 0.987563 -T 10.331486
n -t 5.000000 -s 17 -x 52.613666 -y 74.307304 -U -0.875476 -V -0.483261 -T 16.676842
n -t 5.000000 -s 8 -x 37.099951 -y 93.226809 -U 0.070987 -V -0.997477 -T 12.869102
n -t 5.000000 -s 19 -x 55.397352 -y 83.162963 -U -0.836904 -V 0.547350 -T 20.771636
n -t 5.000000 -s 8 -x 37.099951 -y 93.226809 -U -0.717659 -V -0.696395 -T 13.432990
n -t 6.000000 -s 3 -x 2.152454 -y 60.135249 -U 0.000000 -V 0.000000 -T 0.000000
n -t 6.000000 -s 12 -x 22.404225 -y 57.032605 -U 0.000000 -V 0.000000 -T 0.000000
n -t 6.000000 -s 17 -x 51.738189 -y 73.824043 -U 0.000000 -V 0.000000 -T 0.000000
n -t 6.000000 -s 8 -x 36.382292 -y 92.530414 -U 0.000000 -V 0.000000 -T 0.000000
n -t 6.000000 -s 19 -x 54.560448 -y 83.710312 -U 0.000000 -V 0.000000 -T 0.000000
n -t 6.000000 -s 3 -x 2.152454 -y 60.135249 -U 0.749307 -V 0.662223 -T 8.002275
n -t 6.000000 -s 12 -x 22.404225 -y 57.032605 -U -0.013505 -V 0.999909 -T 8.402701
n -t 6.000000 -s 17 -x 51.738189 -y 73.824043 -U -0.876902 -V -0.480668 -T 17.453828
n -t 6.000000 -s 8 -x 36.382292 -y 92.530414 -U 0.003906 -V -0.999992 -T 12.953838
n -t 6.000000 -s 19 -x 54.560448 -y 83.710312 -U -0.875433 -V 0.483340 -T 20.706969
n -t 6.000000 -s 3 -x 2.152454 -y 60.135249 -U 0.726206 -V 0.687477 -T 17.993838
n -t 6.000000 -s 8 -x 36.382292 -y 92.530414 -U -0.736204 -V -0.676760 -T 14.140818
n -t 7.000000 -s 3 -x 2.878660 -y 60.822726 -U 0.000000 -V 0.000000 -T 0.000000
n -t 7.000000 -s 12 -x 22.390720 -y 58.032514 -U 0.000000 -V 0.000000 -T 0.000000
n -t 7.000000 -s 17 -x 50.861287 -y 73.343375 -U 0.000000 -V 0.000000 -T 0.000000
n -t 7.000000 -s 8 -x 35.646088 -y 91.853654 -U 0.000000 -V 0.000000 -T 0.000000
n -t 7.000000 -s 19 -x 53.685015 -y 84.193652 -U 0.000000 -V 0.000000 -T 0.000000
n -t 7.000000 -s 3 -x 2.878660 -y 60.822726 -U 0.696743 -V 0.717321 -T 5.295142
n -t 7.000000 -s 12 -x 22.390720 -y 58.032514 -U -0.247161 -V 0.968974 -T 6.799487
n -t 7.000000 -s 10 -x 34.595100 -y 47.498030 -U 0.015018 -V 0.999887 -T 17.124943
n -t 7.000000 -s 8 -x 35.646088 -y 91.853654 -U -0.060529 -V -0.998166 -T 13.114523
n -t 7.000000 -s 19 -x 53.685015 -y 84.193652 -U -0.907599 -V 0.419838 -T 20.750055
n -t 7.000000 -s 3 -x 2.878660 -y 60.822726 -U 0.703536 -V 0.710660 -T 15.294776
n -t 7.000000 -s 8 -x 35.646088 -y 91.853654 -U -0.752039 -V -0.659118 -T 14.860585
n -t 8.000000 -s 3 -x 3.582195 -y 61.533386 -U 0.000000 -V 0.000000 -T 0.000000
n -t 8.000000 -s 12 -x 22.143559 -y 59.001488 -U 0.000000 -V 0.000000 -T 0.000000
n -t 8.000000 -s 10 -x 34.610118 -y 48.497917 -U 0.000000 -V 0.000000 -T 0.000000
n -t 8.000000 -s 8 -x 34.894049 -y 91.194536 -U 0.000000 -V 0.000000 -T 0.000000
n -t 8.000000 -s 19 -x 52.777416 -y 84.613490 -U 0.000000 -V 0.000000 -T 0.000000
n -t 8.000000 -s 3 -x 3.582195 -y 61.533386 -U 0.525653 -V 0.850699 -T 2.673281
n -t 8.000000 -s 12 -x 22.143559 -y 59.001488 -U -0.531294 -V 0.847187 -T 5.672956
n -t 8.000000 -s 10 -x 34.610118 -y 48.497917 -U -0.087092 -V 0.996200 -T 15.368021
n -t 8.000000 -s 8 -x 34.894049 -y 91.194536 -U -0.121581 -V -0.992581 -T 13.343848
n -t 8.000000 -s 19 -x 52.777416 -y 84.613490 -U -0.933728 -V 0.357983 -T 20.890163
n -t 8.000000 -s 3 -x 3.582195 -y 61.533386 -U 0.671832 -V 0.740704 -T 12.616682
n -t 8.000000 -s 12 -x 22.143559 -y 59.001488 -U -0.157091 -V 0.987584 -T 14.186407
n -t 9.000000 -s 3 -x 4.254027 -y 62.274090 -U 0.000000 -V 0.000000 -T 0.000000
n -t 9.000000 -s 12 -x 21.986468 -y 59.989072 -U 0.000000 -V 0.000000 -T 0.000000
n -t 9.000000 -s 10 -x 34.523026 -y 49.494117 -U 0.000000 -V 0.000000 -T 0.000000
n -t 9.000000 -s 8 -x 34.772467 -y 90.201954 -U 0.000000 -V 0.000000 -T 0.000000
n -t 9.000000 -s 19 -x 51.843688 -y 84.971473 -U 0.000000 -V 0.000000 -T 0.000000
n -t 9.000000 -s 3 -x 4.254027 -y 62.274090 -U -0.762017 -V 0.647557 -T 1.111804
n -t 9.000000 -s 12 -x 21.986468 -y 59.989072 -U -0.828013 -V 0.560709 -T 5.359239
n -t 9.000000 -s 10 -x 34.523026 -y 49.494117 -U -0.205306 -V 0.978698 -T 13.793766
n -t 9.000000 -s 3 -x 4.254027 -y 62.274090 -U 0.624147 -V 0.781307 -T 9.971781
n -t 9.000000 -s 12 -x 21.986468 -y 59.989072 -U -0.250537 -V 0.968107 -T 12.712000
n -t 10.000000 -s 3 -x 4.878174 -y 63.055397 -U 0.000000 -V 0.000000 -T 0.000000
n -t 10.000000 -s 12 -x 21.735930 -y 60.957179 -U 0.000000 -V 0.000000 -T 0.000000
n -t 10.000000 -s 10 -x 34.317720 -y 50.472815 -U 0.000000 -V 0.000000 -T 0.000000
n -t 10.000000 -s 3 -x 4.878174 -y 63.055397 -U -0.961286 -V -0.275554 -T 3.174874
n -t 10.000000 -s 12 -x 21.735930 -y 60.957179 -U -0.978236 -V 0.207495 -T 5.895900
n -t 10.000000 -s 11 -x 2.580692 -y 55.633210 -U -0.036443 -V 0.999336 -T 20.703227
n -t 10.000000 -s 10 -x 34.317720 -y 50.472815 -U -0.338182 -V 0.941081 -T 12.440734
n -t 10.000000 -s 8 -x 34.772467 -y 90.201954 -U -0.999968 -V 0.007978 -T 32.947303
n -t 10.000000 -s 3 -x 4.878174 -y 63.055397 -U 0.544185 -V 0.838965 -T 7.385551
n -t 10.000000 -s 12 -x 21.735930 -y 60.957179 -U -0.351418 -V 0.936219 -T 11.412305
n -t 11.000000 -s 3 -x 5.422359 -y 63.894362 -U 0.000000 -V 0.000000 -T 0.000000
n -t 11.000000 -s 12 -x 21.384512 -y 61.893398 -U 0.000000 -V 0.000000 -T 0.000000
n -t 11.000000 -s 11 -x 2.544249 -y 56.632546 -U 0.000000 -V 0.000000 -T 0.000000
n -t 11.000000 -s 10 -x 33.979538 -y 51.413896 -U 0.000000 -V 0.000000 -T 0.000000
n -t 11.000000 -s 8 -x 33.772499 -y 90.209933 -U 0.000000 -V 0.000000 -T 0.000000
n -t 11.000000 -s 11 -x 2.544249 -y 56.632546 -U -0.436753 -V 0.899581 -T 5.263010
n -t 11.000000 -s 12 -x 21.384512 -y 61.893398 -U -0.997182 -V -0.075015 -T 7.016534
n -t 11.000000 -s 3 -x 5.422359 -y 63.894362 -U -0.407097 -V 0.913385 -T 12.716244
n -t 11.000000 -s 10 -x 33.979538 -y 51.413896 -U -0.480255 -V 0.877129 -T 11.347424
n -t 11.000000 -s 8 -x 33.772499 -y 90.209933 -U -0.999861 -V -0.016659 -T 33.531540
n -t 11.000000 -s 11 -x 2.544249 -y 56.632546 -U 0.374787 -V 0.927111 -T 12.733722
n -t 11.000000 -s 3 -x 5.422359 -y 63.894362 -U 0.611033 -V 0.791605 -T 9.672504
n -t 12.000000 -s 11 -x 2.919036 -y 57.559657 -U 0.000000 -V 0.000000 -T 0.000000
n -t 12.000000 -s 12 -x 20.387330 -y 61.818383 -U 0.000000 -V 0.000000 -T 0.000000
n -t 12.000000 -s 3 -x 6.033392 -y 64.685967 -U 0.000000 -V 0.000000 -T 0.000000
n -t 12.000000 -s 10 -x 33.499283 -y 52.291025 -U 0.000000 -V 0.000000 -T 0.000000
n -t 12.000000 -s 8 -x 32.772638 -y 90.193273 -U 0.000000 -V 0.000000 -T 0.000000
n -t 12.000000 -s 11 -x 2.919036 -y 57.559657 -U -0.698098 -V 0.716002 -T 4.181410
n -t 12.000000 -s 12 -x 20.387330 -y 61.818383 -U -0.986363 -V -0.164584 -T 7.684982
n -t 12.000000 -s 3 -x 6.033392 -y 64.685967 -U -0.516228 -V 0.856451 -T 11.687445
n -t 12.000000 -s 10 -x 33.499283 -y 52.291025 -U -0.621218 -V 0.783638 -T 10.543808
n -t 12.000000 -s 8 -x 32.772638 -y 90.193273 -U -0.999146 -V -0.041324 -T 32.800656
n -t 12.000000 -s 11 -x 2.919036 -y 57.559657 -U 0.381349 -V 0.924431 -T 10.887740
n -t 12.000000 -s 3 -x 6.033392 -y 64.685967 -U 0.560450 -V 0.828188 -T 7.086286
n -t 13.000000 -s 11 -x 3.300385 -y 58.484088 -U 0.000000 -V 0.000000 -T 0.000000
n -t 13.000000 -s 12 -x 19.400967 -y 61.653798 -U 0.000000 -V 0.000000 -T 0.000000
n -t 13.000000 -s 3 -x 6.593842 -y 65.514156 -U 0.000000 -V 0.000000 -T 0.000000
n -t 13.000000 -s 10 -x 32.878065 -y 53.074663 -U 0.000000 -V 0.000000 -T 0.000000
n -t 13.000000 -s 8 -x 31.773492 -y 90.151950 -U 0.000000 -V 0.000000 -T 0.000000
n -t 13.000000 -s 11 -x 3.300385 -y 58.484088 -U -0.934612 -V 0.355669 -T 3.531289
n -t 13.000000 -s 3 -x 6.593842 -y 65.514156 -U 0.625800 -V -0.779983 -T 7.402850
n -t 13.000000 -s 12 -x 19.400967 -y 61.653798 -U -0.845978 -V 0.533218 -T 22.933188
n -t 13.000000 -s 10 -x 32.878065 -y 53.074663 -U -0.747885 -V 0.663829 -T 10.040831
n -t 13.000000 -s 8 -x 31.773492 -y 90.151950 -U -0.997766 -V -0.066813 -T 31.844647
n -t 13.000000 -s 11 -x 3.300385 -y 58.484088 -U 0.412503 -V 0.910956 -T 9.140984
n -t 13.000000 -s 3 -x 6.593842 -y 65.514156 -U 0.484348 -V 0.874875 -T 4.564832
n -t 13.000000 -s 11 -x 3.300385 -y 58.484088 -U 0.000000 -V 0.000000 -T 0.000000
n -t 13.000000 -s 12 -x 19.400967 -y 61.653798 -U 0.000000 -V 0.000000 -T 0.000000
n -t 13.000000 -s 10 -x 32.878065 -y 53.074663 -U 0.000000 -V 0.000000 -T 0.000000
n -t 13.000000 -s 8 -x 31.773492 -y 90.151950 -U 0.000000 -V 0.000000 -T 0.000000
n -t 14.000000 -s 11 -x 3.300385 -y 58.484088 -U 0.412503 -V 0.910956 -T 9.140984
n -t 14.000000 -s 3 -x 7.078190 -y 66.389031 -U 0.358816 -V 0.933408 -T 2.156206
n -t 14.000000 -s 11 -x 3.300385 -y 58.484088 -U 0.000000 -V 0.000000 -T 0.000000
n -t 14.000000 -s 12 -x 19.400967 -y 61.653798 -U 0.000000 -V 0.000000 -T 0.000000
n -t 14.000000 -s 10 -x 32.878065 -y 53.074663 -U 0.000000 -V 0.000000 -T 0.000000
n -t 14.000000 -s 8 -x 31.773492 -y 90.151950 -U 0.000000 -V 0.000000 -T 0.000000
n -t 15.000000 -s 11 -x 3.300385 -y 58.484088 -U 0.412503 -V 0.910956 -T 9.140984
n -t 15.000000 -s 11 -x 3.300385 -y 58.484088 -U 0.000000 -V 0.000000 -T 0.000000
n -t 15.000000 -s 12 -x 19.400967 -y 61.653798 -U 0.000000 -V 0.000000 -T 0.000000
n -t 15.000000 -s 10 -x 32.878065 -y 53.074663 -U 0.000000 -V 0.000000 -T 0.000000
n -t 15.000000 -s 8 -x 31.773492 -y 90.151950 -U 0.000000 -V 0.000000 -T 0.000000
n -t 16.000000 -s 11 -x 3.300385 -y 58.484088 -U 0.357186 -V 0.934033 -T 8.915139
n -t 16.000000 -s 11 -x 3.300385 -y 58.484088 -U 0.000000 -V 0.000000 -T 0.000000
n -t 16.000000 -s 12 -x 19.400967 -y 61.653798 -U 0.000000 -V 0.000000 -T 0.000000
n -t 16.000000 -s 10 -x 32.878065 -y 53.074663 -U 0.000000 -V 0.000000 -T 0.000000
n -t 16.000000 -s 8 -x 31.773492 -y 90.151950 -U 0.000000 -V 0.000000 -T 0.000000
n -t 17.000000 -s 11 -x 3.300385 -y 58.484088 -U 0.189121 -V 0.981954 -T 8.480070
n -t 17.000000 -s 11 -x 3.300385 -y 58.484088 -U 0.000000 -V 0.000000 -T 0.000000
n -t 17.000000 -s 12 -x 19.400967 -y 61.653798 -U 0.000000 -V 0.000000 -T 0.000000
n -t 17.000000 -s 10 -x 32.878065 -y 53.074663 -U 0.000000 -V 0.000000 -T 0.000000
n -t 17.000000 -s 8 -x 31.773492 -y 90.151950 -U 0.000000 -V 0.000000 -T 0.000000
n -t 18.000000 -s 11 -x 3.300385 -y 58.484088 -U 0.000000 -V 0.000000 -T 0.000000
n -t 18.000000 -s 3 -x 7.851870 -y 68.401652 -U 0.000000 -V 0.000000 -T 0.000000
n -t 18.000000 -s 12 -x 19.400967 -y 61.653798 -U 0.000000 -V 0.000000 -T 0.000000
n -t 18.000000 -s 10 -x 32.878065 -y 53.074663 -U 0.000000 -V 0.000000 -T 0.000000
n -t 18.000000 -s 8 -x 31.773492 -y 90.151950 -U 0.000000 -V 0.000000 -T 0.000000
n -t 18.000000 -s 11 -x 3.300385 -y 58.484088 -U -0.761234 -V -0.648477 -T 4.335572
n -t 18.000000 -s 4 -x 1.930693 -y 44.700390 -U 0.125934 -V 0.992039 -T 11.060233
n -t 18.000000 -s 3 -x 7.851870 -y 68.401652 -U -0.984190 -V 0.177118 -T 7.978006
n -t 18.000000 -s 12 -x 19.400967 -y 61.653798 -U -0.307846 -V -0.951436 -T 6.286527
n -t 18.000000 -s 8 -x 31.773492 -y 90.151950 -U -0.981517 -V -0.191374 -T 32.371811
n -t 18.000000 -s 11 -x 3.300385 -y 58.484088 -U 0.005438 -V 0.999985 -T 4.259612
n -t 18.000000 -s 11 -x 3.300385 -y 58.484088 -U 0.000000 -V 0.000000 -T 0.000000
n -t 18.000000 -s 4 -x 1.930693 -y 44.700390 -U 0.000000 -V 0.000000 -T 0.000000
n -t 18.000000 -s 12 -x 19.400967 -y 61.653798 -U 0.000000 -V 0.000000 -T 0.000000
n -t 18.000000 -s 8 -x 31.773492 -y 90.151950 -U 0.000000 -V 0.000000 -T 0.000000
n -t 19.000000 -s 11 -x 3.300385 -y 58.484088 -U -0.202870 -V 0.979206 -T 4.350004
n -t 19.000000 -s 11 -x 3.300385 -y 58.484088 -U 0.000000 -V 0.000000 -T 0.000000
n -t 19.000000 -s 4 -x 1.930693 -y 44.700390 -U 0.000000 -V 0.000000 -T 0.000000
n -t 19.000000 -s 12 -x 19.400967 -y 61.653798 -U 0.000000 -V 0.000000 -T 0.000000
n -t 19.000000 -s 8 -x 31.773492 -y 90.151950 -U 0.000000 -V 0.000000 -T 0.000000
n -t 20.000000 -s 11 -x 3.300385 -y 58.484088 -U -0.202870 -V 0.979206 -T 4.350004
n -t 20.000000 -s 11 -x 3.300385 -y 58.484088 -U 0.000000 -V 0.000000 -T 0.000000
n -t 20.000000 -s 4 -x 1.930693 -y 44.700390 -U 0.000000 -V 0.000000 -T 0.000000
n -t 20.000000 -s 12 -x 19.400967 -y 61.653798 -U 0.000000 -V 0.000000 -T 0.000000
n -t 20.000000 -s 8 -x 31.773492 -y 90.151950 -U 0.000000 -V 0.000000 -T 0.000000
n -t 21.000000 -s 11 -x 3.300385 -y 58.484088 -U -0.202870 -V 0.979206 -T 4.350004
n -t 21.000000 -s 11 -x 3.300385 -y 58.484088 -U 0.000000 -V 0.000000 -T 0.000000
n -t 21.000000 -s 4 -x 1.930693 -y 44.700390 -U 0.000000 -V 0.000000 -T 0.000000
n -t 21.000000 -s 12 -x 19.400967 -y 61.653798 -U 0.000000 -V 0.000000 -T 0.000000
n -t 21.000000 -s 8 -x 31.773492 -y 90.151950 -U 0.000000 -V 0.000000 -T 0.000000
n -t 22.000000 -s 11 -x 3.300385 -y 58.484088 -U -0.202870 -V 0.979206 -T 4.350004
n -t 22.000000 -s 11 -x 3.300385 -y 58.484088 -U 0.000000 -V 0.000000 -T 0.000000
n -t 22.000000 -s 4 -x 1.930693 -y 44.700390 -U 0.000000 -V 0.000000 -T 0.000000
n -t 22.000000 -s 12 -x 19.400967 -y 61.653798 -U 0.000000 -V 0.000000 -T 0.000000
n -t 22.000000 -s 8 -x 31.773492 -y 90.151950 -U 0.000000 -V 0.000000 -T 0.000000
n -t 23.000000 -s 11 -x 3.300385 -y 58.484088 -U -0.202870 -V 0.979206 -T 4.350004
n -t 23.000000 -s 11 -x 3.300385 -y 58.484088 -U 0.000000 -V 0.000000 -T 0.000000
n -t 23.000000 -s 4 -x 1.930693 -y 44.700390 -U 0.000000 -V 0.000000 -T 0.000000
n -t 23.000000 -s 12 -x 19.400967 -y 61.653798 -U 0.000000 -V 0.000000 -T 0.000000
n -t 23.000000 -s 8 -x 31.773492 -y 90.151950 -U 0.000000 -V 0.000000 -T 0.000000
n -t 24.000000 -s 11 -x 3.300385 -y 58.484088 -U -0.202870 -V 0.979206 -T 4.350004
n -t 24.000000 -s 11 -x 3.300385 -y 58.484088 -U 0.000000 -V 0.000000 -T 0.000000
n -t 24.000000 -s 4 -x 1.930693 -y 44.700390 -U 0.000000 -V 0.000000 -T 0.000000
n -t 24.000000 -s 12 -x 19.400967 -y 61.653798 -U 0.000000 -V 0.000000 -T 0.000000
n -t 24.000000 -s 8 -x 31.773492 -y 90.151950 -U 0.000000 -V 0.000000 -T 0.000000
n -t 25.000000 -s 20 -x 2.417901 -y 69.348590 -U 0.498602 -V -0.638669 -T 66.084145
n -t 25.000000 -s 11 -x 3.300385 -y 58.484088 -U -0.202870 -V 0.979206 -T 4.350004
n -t 25.000000 -s 11 -x 3.300385 -y 58.484088 -U 0.000000 -V 0.000000 -T 0.000000
n -t 25.000000 -s 4 -x 1.930693 -y 44.700390 -U 0.000000 -V 0.000000 -T 0.000000
n -t 25.000000 -s 12 -x 19.400967 -y 61.653798 -U 0.000000 -V 0.000000 -T 0.000000
n -t 25.000000 -s 8 -x 31.773492 -y 90.151950 -U 0.000000 -V 0.000000 -T 0.000000
n -t 26.000000 -s 11 -x 3.300385 -y 58.484088 -U -0.089759 -V 0.995964 -T 4.276812
n -t 26.000000 -s 11 -x 3.300385 -y 58.484088 -U 0.000000 -V 0.000000 -T 0.000000
n -t 26.000000 -s 4 -x 1.930693 -y 44.700390 -U 0.000000 -V 0.000000 -T 0.000000
n -t 26.000000 -s 12 -x 19.400967 -y 61.653798 -U 0.000000 -V 0.000000 -T 0.000000
n -t 26.000000 -s 8 -x 31.773492 -y 90.151950 -U 0.000000 -V 0.000000 -T 0.000000
n -t 27.000000 -s 11 -x 3.300385 -y 58.484088 -U 0.026923 -V 0.999638 -T 4.261094
n -t 27.000000 -s 11 -x 3.300385 -y 58.484088 -U 0.000000 -V 0.000000 -T 0.000000
n -t 27.000000 -s 4 -x 1.930693 -y 44.700390 -U 0.000000 -V 0.000000 -T 0.000000
n -t 27.000000 -s 12 -x 19.400967 -y 61.653798 -U 0.000000 -V 0.000000 -T 0.000000
n -t 27.000000 -s 8 -x 31.773492 -y 90.151950 -U 0.000000 -V 0.000000 -T 0.000000
n -t 28.000000 -s 11 -x 3.300385 -y 58.484088 -U 0.142518 -V 0.989792 -T 4.303478
n -t 28.000000 -s 11 -x 3.300385 -y 58.484088 -U 0.000000 -V 0.000000 -T 0.000000
n -t 28.000000 -s 4 -x 1.930693 -y 44.700390 -U 0.000000 -V 0.000000 -T 0.000000
n -t 28.000000 -s 12 -x 19.400967 -y 61.653798 -U 0.000000 -V 0.000000 -T 0.000000
n -t 28.000000 -s 8 -x 31.773492 -y 90.151950 -U 0.000000 -V 0.000000 -T 0.000000
n -t 29.000000 -s 11 -x 3.300385 -y 58.484088 -U 0.252579 -V 0.967576 -T 4.402287
n -t 29.000000 -s 3 -x 0.000000 -y 69.814705 -U 0.825147 -V -0.564918 -T 0.347303
n -t 29.000000 -s 11 -x 3.300385 -y 58.484088 -U 0.000000 -V 0.000000 -T 0.000000
n -t 29.000000 -s 4 -x 1.930693 -y 44.700390 -U 0.000000 -V 0.000000 -T 0.000000
n -t 29.000000 -s 12 -x 19.400967 -y 61.653798 -U 0.000000 -V 0.000000 -T 0.000000
n -t 29.000000 -s 8 -x 31.773492 -y 90.151950 -U 0.000000 -V 0.000000 -T 0.000000
n -t 30.000000 -s 11 -x 3.300385 -y 58.484088 -U 0.353663 -V 0.935373 -T 4.553850
n -t 30.000000 -s 3 -x 0.286576 -y 69.618507 -U 0.800414 -V -0.599447 -T 0.777427
n -t 30.000000 -s 11 -x 3.300385 -y 58.484088 -U 0.000000 -V 0.000000 -T 0.000000
n -t 30.000000 -s 4 -x 1.930693 -y 44.700390 -U 0.000000 -V 0.000000 -T 0.000000
n -t 30.000000 -s 12 -x 19.400967 -y 61.653798 -U 0.000000 -V 0.000000 -T 0.000000
n -t 30.000000 -s 8 -x 31.773492 -y 90.151950 -U 0.000000 -V 0.000000 -T 0.000000
n -t 31.000000 -s 11 -x 3.300385 -y 58.484088 -U 0.443735 -V 0.896158 -T 4.753123
n -t 31.000000 -s 3 -x 0.908840 -y 69.152480 -U 0.777878 -V -0.628415 -T 0.785833
n -t 31.000000 -s 11 -x 3.300385 -y 58.484088 -U 0.000000 -V 0.000000 -T 0.000000
n -t 31.000000 -s 4 -x 1.930693 -y 44.700390 -U 0.000000 -V 0.000000 -T 0.000000
n -t 31.000000 -s 12 -x 19.400967 -y 61.653798 -U 0.000000 -V 0.000000 -T 0.000000
n -t 31.000000 -s 8 -x 31.773492 -y 90.151950 -U 0.000000 -V 0.000000 -T 0.000000
n -t 32.000000 -s 11 -x 3.300385 -y 58.484088 -U 0.522131 -V 0.852865 -T 4.994399
n -t 32.000000 -s 3 -x 1.520123 -y 68.658651 -U 0.757582 -V -0.652741 -T 0.792108
n -t 32.000000 -s 11 -x 3.300385 -y 58.484088 -U 0.000000 -V 0.000000 -T 0.000000
n -t 32.000000 -s 4 -x 1.930693 -y 44.700390 -U 0.000000 -V 0.000000 -T 0.000000
n -t 32.000000 -s 12 -x 19.400967 -y 61.653798 -U 0.000000 -V 0.000000 -T 0.000000
n -t 32.000000 -s 8 -x 31.773492 -y 90.151950 -U 0.000000 -V 0.000000 -T 0.000000
n -t 33.000000 -s 11 -x 3.300385 -y 58.484088 -U 0.589223 -V 0.807970 -T 5.271913
n -t 33.000000 -s 3 -x 2.120209 -y 68.141610 -U 0.739464 -V -0.673196 -T 0.796781
n -t 33.000000 -s 11 -x 3.300385 -y 58.484088 -U 0.000000 -V 0.000000 -T 0.000000
n -t 33.000000 -s 4 -x 1.930693 -y 44.700390 -U 0.000000 -V 0.000000 -T 0.000000
n -t 33.000000 -s 12 -x 19.400967 -y 61.653798 -U 0.000000 -V 0.000000 -T 0.000000
n -t 33.000000 -s 8 -x 31.773492 -y 90.151950 -U 0.000000 -V 0.000000 -T 0.000000
n -t 34.000000 -s 11 -x 3.300385 -y 58.484088 -U 0.646015 -V 0.763324 -T 5.580261
n -t 34.000000 -s 3 -x 2.709399 -y 67.605220 -U 0.723403 -V -0.690426 -T 0.800257
n -t 34.000000 -s 11 -x 3.300385 -y 58.484088 -U 0.000000 -V 0.000000 -T 0.000000
n -t 34.000000 -s 4 -x 1.930693 -y 44.700390 -U 0.000000 -V 0.000000 -T 0.000000
n -t 34.000000 -s 12 -x 19.400967 -y 61.653798 -U 0.000000 -V 0.000000 -T 0.000000
n -t 34.000000 -s 8 -x 31.773492 -y 90.151950 -U 0.000000 -V 0.000000 -T 0.000000
n -t 35.000000 -s 11 -x 3.300385 -y 58.484088 -U 0.662832 -V 0.748768 -T 5.688744
n -t 35.000000 -s 3 -x 3.288307 -y 67.052702 -U 0.709242 -V -0.704965 -T 0.802839
n -t 35.000000 -s 11 -x 3.300385 -y 58.484088 -U 0.000000 -V 0.000000 -T 0.000000
n -t 35.000000 -s 4 -x 1.930693 -y 44.700390 -U 0.000000 -V 0.000000 -T 0.000000
n -t 35.000000 -s 12 -x 19.400967 -y 61.653798 -U 0.000000 -V 0.000000 -T 0.000000
n -t 35.000000 -s 8 -x 31.773492 -y 90.151950 -U 0.000000 -V 0.000000 -T 0.000000
n -t 36.000000 -s 11 -x 3.300385 -y 58.484088 -U 0.000000 -V 0.000000 -T 0.000000
n -t 36.000000 -s 4 -x 1.930693 -y 44.700390 -U 0.000000 -V 0.000000 -T 0.000000
n -t 36.000000 -s 3 -x 3.857714 -y 66.486728 -U 0.000000 -V 0.000000 -T 0.000000
n -t 36.000000 -s 12 -x 19.400967 -y 61.653798 -U 0.000000 -V 0.000000 -T 0.000000
n -t 36.000000 -s 8 -x 31.773492 -y 90.151950 -U 0.000000 -V 0.000000 -T 0.000000
n -t 36.000000 -s 3 -x 3.857714 -y 66.486728 -U 0.696810 -V -0.717256 -T 5.804756
n -t 36.000000 -s 9 -x 14.476030 -y 41.281660 -U 0.739023 -V 0.673681 -T 10.241406
n -t 36.000000 -s 12 -x 19.400967 -y 61.653798 -U 0.969404 -V 0.245471 -T 2.727134
n -t 36.000000 -s 4 -x 1.930693 -y 44.700390 -U 0.863959 -V 0.503562 -T 6.912170
n -t 36.000000 -s 5 -x 3.067588 -y 40.661850 -U -0.377739 -V 0.925912 -T 8.120909
n -t 36.000000 -s 11 -x 3.300385 -y 58.484088 -U -0.651894 -V 0.758310 -T 5.062763
n -t 36.000000 -s 3 -x 3.857714 -y 66.486728 -U 0.696810 -V -0.717256 -T 0.804756
n -t 36.000000 -s 9 -x 14.476030 -y 41.281660 -U 0.000000 -V 0.000000 -T 0.000000
n -t 36.000000 -s 12 -x 19.400967 -y 61.653798 -U 0.000000 -V 0.000000 -T 0.000000
n -t 36.000000 -s 4 -x 1.930693 -y 44.700390 -U 0.000000 -V 0.000000 -T 0.000000
n -t 36.000000 -s 5 -x 3.067588 -y 40.661850 -U 0.000000 -V 0.000000 -T 0.000000
n -t 36.000000 -s 11 -x 3.300385 -y 58.484088 -U 0.000000 -V 0.000000 -T 0.000000
n -t 37.000000 -s 3 -x 4.418476 -y 65.909512 -U 0.685933 -V -0.727664 -T 0.806178
n -t 37.000000 -s 9 -x 14.476030 -y 41.281660 -U 0.000000 -V 0.000000 -T 0.000000
n -t 37.000000 -s 12 -x 19.400967 -y 61.653798 -U 0.000000 -V 0.000000 -T 0.000000
n -t 37.000000 -s 4 -x 1.930693 -y 44.700390 -U 0.000000 -V 0.000000 -T 0.000000
n -t 37.000000 -s 5 -x 3.067588 -y 40.661850 -U 0.000000 -V 0.000000 -T 0.000000
n -t 37.000000 -s 11 -x 3.300385 -y 58.484088 -U 0.000000 -V 0.000000 -T 0.000000
n -t 38.000000 -s 3 -x 4.971461 -y 65.322885 -U 0.676444 -V -0.736494 -T 0.807232
n -t 38.000000 -s 9 -x 14.476030 -y 41.281660 -U 0.000000 -V 0.000000 -T 0.000000
n -t 38.000000 -s 12 -x 19.400967 -y 61.653798 -U 0.000000 -V 0.000000 -T 0.000000
n -t 38.000000 -s 4 -x 1.930693 -y 44.700390 -U 0.000000 -V 0.000000 -T 0.000000
n -t 38.000000 -s 5 -x 3.067588 -y 40.661850 -U 0.000000 -V 0.000000 -T 0.000000
n -t 38.000000 -s 11 -x 3.300385 -y 58.484088 -U 0.000000 -V 0.000000 -T 0.000000
n -t 39.000000 -s 3 -x 5.517508 -y 64.728363 -U 0.668184 -V -0.743996 -T 0.808014
n -t 39.000000 -s 9 -x 14.476030 -y 41.281660 -U 0.000000 -V 0.000000 -T 0.000000
n -t 39.000000 -s 12 -x 19.400967 -y 61.653798 -U 0.000000 -V 0.000000 -T 0.000000
n -t 39.000000 -s 4 -x 1.930693 -y 44.700390 -U 0.000000 -V 0.000000 -T 0.000000
n -t 39.000000 -s 5 -x 3.067588 -y 40.661850 -U 0.000000 -V 0.000000 -T 0.000000
n -t 39.000000 -s 11 -x 3.300385 -y 58.484088 -U 0.000000 -V 0.000000 -T 0.000000
n -t 40.000000 -s 3 -x 6.057410 -y 64.127204 -U 0.661007 -V -0.750379 -T 0.808593
n -t 40.000000 -s 9 -x 14.476030 -y 41.281660 -U 0.000000 -V 0.000000 -T 0.000000
n -t 40.000000 -s 12 -x 19.400967 -y 61.653798 -U 0.000000 -V 0.000000 -T 0.000000
n -t 40.000000 -s 4 -x 1.930693 -y 44.700390 -U 0.000000 -V 0.000000 -T 0.000000
n -t 40.000000 -s 5 -x 3.067588 -y 40.661850 -U 0.000000 -V 0.000000 -T 0.000000
n -t 40.000000 -s 11 -x 3.300385 -y 58.484088 -U 0.000000 -V 0.000000 -T 0.000000
n -t 41.000000 -s 3 -x 6.591896 -y 63.520453 -U 0.654781 -V -0.755818 -T 0.809022
n -t 41.000000 -s 9 -x 14.476030 -y 41.281660 -U 0.000000 -V 0.000000 -T 0.000000
n -t 41.000000 -s 12 -x 19.400967 -y 61.653798 -U 0.000000 -V 0.000000 -T 0.000000
n -t 41.000000 -s 4 -x 1.930693 -y 44.700390 -U 0.000000 -V 0.000000 -T 0.000000
n -t 41.000000 -s 5 -x 3.067588 -y 40.661850 -U 0.000000 -V 0.000000 -T 0.000000
n -t 41.000000 -s 11 -x 3.300385 -y 58.484088 -U 0.000000 -V 0.000000 -T 0.000000
n -t 42.000000 -s 3 -x 7.121629 -y 62.908979 -U 0.649387 -V -0.760458 -T 0.809340
n -t 42.000000 -s 9 -x 14.476030 -y 41.281660 -U 0.000000 -V 0.000000 -T 0.000000
n -t 42.000000 -s 12 -x 19.400967 -y 61.653798 -U 0.000000 -V 0.000000 -T 0.000000
n -t 42.000000 -s 4 -x 1.930693 -y 44.700390 -U 0.000000 -V 0.000000 -T 0.000000
n -t 42.000000 -s 5 -x 3.067588 -y 40.661850 -U 0.000000 -V 0.000000 -T 0.000000
n -t 42.000000 -s 11 -x 3.300385 -y 58.484088 -U 0.000000 -V 0.000000 -T 0.000000
n -t 43.000000 -s 3 -x 7.647204 -y 62.293509 -U 0.644718 -V -0.764421 -T 0.809576
n -t 43.000000 -s 9 -x 14.476030 -y 41.281660 -U 0.000000 -V 0.000000 -T 0.000000
n -t 43.000000 -s 12 -x 19.400967 -y 61.653798 -U 0.000000 -V 0.000000 -T 0.000000
n -t 43.000000 -s 4 -x 1.930693 -y 44.700390 -U 0.000000 -V 0.000000 -T 0.000000
n -t 43.000000 -s 5 -x 3.067588 -y 40.661850 -U 0.000000 -V 0.000000 -T 0.000000
n -t 43.000000 -s 11 -x 3.300385 -y 58.484088 -U 0.000000 -V 0.000000 -T 0.000000
n -t 44.000000 -s 3 -x 8.169152 -y 61.674653 -U 0.640680 -V -0.767808 -T 0.809750
n -t 44.000000 -s 9 -x 14.476030 -y 41.281660 -U 0.000000 -V 0.000000 -T 0.000000
n -t 44.000000 -s 12 -x 19.400967 -y 61.653798 -U 0.000000 -V 0.000000 -T 0.000000
n -t 44.000000 -s 4 -x 1.930693 -y 44.700390 -U 0.000000 -V 0.000000 -T 0.000000